
Running Job 1 of 1 FeHis4_opt_sto3g.in
qchem FeHis4_opt_sto3g.in_6442.0 /scr/c295_lal/137015/qchem6442/ 1
/usr/software/qchem_511/exe/qcprog.exe_s FeHis4_opt_sto3g.in_6442.0 /scr/c295_lal/137015/qchem6442/
Check license passed

                  Welcome to Q-Chem
     A Quantum Leap Into The Future Of Chemistry


 Q-Chem 5.1, Q-Chem, Inc., Pleasanton, CA (2018)

 Yihan Shao,  Zhengting Gan,  E. Epifanovsky,  A. T. B. Gilbert,  M. Wormit,  
 J. Kussmann,  A. W. Lange,  A. Behn,  Jia Deng,  Xintian Feng,  D. Ghosh,  
 M. Goldey,  P. R. Horn,  L. D. Jacobson,  I. Kaliman,  T. Kus,  A. Landau,  
 Jie Liu,  E. I. Proynov,  R. M. Richard,  R. P. Steele,  E. J. Sundstrom,  
 H. L. Woodcock III,  P. M. Zimmerman,  D. Zuev,  B. Albrecht,  E. Alguire,  
 S. A. Baeppler,  D. Barton,  Z. Benda,  Y. A. Bernard,  E. J. Berquist,  
 K. B. Bravaya,  H. Burton,  D. Casanova,  Chun-Min Chang,  Yunqing Chen,  
 A. Chien,  K. D. Closser,  M. P. Coons,  S. Coriani,  S. Dasgupta,  
 A. L. Dempwolff,  M. Diedenhofen,  Hainam Do,  R. G. Edgar,  Po-Tung Fang,  
 S. Faraji,  S. Fatehi,  Qingguo Feng,  K. D. Fenk,  J. Fosso-Tande,  
 Qinghui Ge,  A. Ghysels,  G. Gidofalvi,  J. Gomes,  J. Gonthier,  A. Gunina,  
 D. Hait,  M. W. D. Hanson-Heine,  P. H. P. Harbach,  A. W. Hauser,  
 J. E. Herr,  E. G. Hohenstein,  Z. C. Holden,  Kerwin Hui,  B. C. Huynh,  
 T.-C. Jagau,  Hyunjun Ji,  B. Kaduk,  K. Khistyaev,  Jaehoon Kim,  
 P. Klunzinger,  K. Koh,  D. Kosenkov,  L. Koulias,  T. Kowalczyk,  
 C. M. Krauter,  A. Kunitsa,  Ka Un Lao,  A. Laurent,  K. V. Lawler,  
 Joonho Lee,  D. Lefrancois,  S. Lehtola,  D. S. Levine,  Yi-Pei Li,  
 You-Sheng Lin,  Fenglai Liu,  E. Livshits,  A. Luenser,  P. Manohar,  
 E. Mansoor,  S. F. Manzer,  Shan-Ping Mao,  Yuezhi Mao,  N. Mardirossian,  
 A. V. Marenich,  T. Markovich,  L. A. Martinez-Martinez,  S. A. Maurer,  
 N. J. Mayhall,  S. C. McKenzie,  J.-M. Mewes,  A. F. Morrison,  
 J. W. Mullinax,  K. Nanda,  T. S. Nguyen-Beck,  R. Olivares-Amaya,  
 J. A. Parkhill,  T. M. Perrine,  F. Plasser,  P. Pokhilko,  S. Prager,  
 A. Prociuk,  E. Ramos,  D. R. Rehn,  F. Rob,  M. Schneider,  N. Sergueev,  
 S. M. Sharada,  S. Sharma,  D. W. Small,  T. Stauch,  T. Stein,  
 Yu-Chuan Su,  A. J. W. Thom,  A. Tkatchenko,  T. Tsuchimochi,  N. M. Tubman,  
 L. Vogt,  M. L. Vidal,  O. Vydrov,  M. A. Watson,  J. Wenzel,  
 M. de Wergifosse,  T. A. Wesolowski,  A. White,  J. Witte,  A. Yamada,  
 Jun Yang,  K. Yao,  S. Yeganeh,  S. R. Yost,  Zhi-Qiang You,  A. Zech,  
 Igor Ying Zhang,  Xing Zhang,  Yan Zhao,  Ying Zhu,  B. R. Brooks,  
 G. K. L. Chan,  C. J. Cramer,  M. S. Gordon,  W. J. Hehre,  A. Klamt,  
 M. W. Schmidt,  C. D. Sherrill,  D. G. Truhlar,  A. Aspuru-Guzik,  R. Baer,  
 A. T. Bell,  N. A. Besley,  Jeng-Da Chai,  A. E. DePrince, III,  
 R. A. DiStasio Jr.,  A. Dreuw,  B. D. Dunietz,  T. R. Furlani,  
 Chao-Ping Hsu,  Yousung Jung,  Jing Kong,  D. S. Lambrecht,  WanZhen Liang,  
 C. Ochsenfeld,  V. A. Rassolov,  L. V. Slipchenko,  J. E. Subotnik,  
 T. Van Voorhis,  J. M. Herbert,  A. I. Krylov,  P. M. W. Gill,  M. Head-Gordon

 Contributors to earlier versions of Q-Chem not listed above: 
 R. D. Adamson,  B. Austin,  J. Baker,  G. J. O. Beran,  K. Brandhorst,  
 S. T. Brown,  E. F. C. Byrd,  A. K. Chakraborty,  C.-L. Cheng,  
 Siu Hung Chien,  D. M. Chipman,  D. L. Crittenden,  H. Dachsel,  
 R. J. Doerksen,  A. D. Dutoi,  L. Fusti-Molnar,  W. A. Goddard III,  
 A. Golubeva-Zadorozhnaya,  S. R. Gwaltney,  G. Hawkins,  A. Heyden,  
 S. Hirata,  G. Kedziora,  F. J. Keil,  C. Kelley,  Jihan Kim,  R. A. King,  
 R. Z. Khaliullin,  P. P. Korambath,  W. Kurlancheek,  A. M. Lee,  M. S. Lee,  
 S. V. Levchenko,  Ching Yeh Lin,  D. Liotard,  R. C. Lochan,  I. Lotan,  
 P. E. Maslen,  N. Nair,  D. P. O'Neill,  D. Neuhauser,  E. Neuscamman,  
 C. M. Oana,  R. Olson,  B. Peters,  R. Peverati,  P. A. Pieniazek,  
 Y. M. Rhee,  J. Ritchie,  M. A. Rohrdanz,  E. Rosta,  N. J. Russ,  
 H. F. Schaefer III,  N. E. Schultz,  N. Shenvi,  A. C. Simmonett,  A. Sodt,  
 D. Stuck,  K. S. Thanthiriwatte,  V. Vanovschi,  Tao Wang,  A. Warshel,  
 C. F. Williams,  Q. Wu,  X. Xu,  W. Zhang

 Please cite Q-Chem as follows:
 Y. Shao et al., Mol. Phys. 113, 184-215 (2015)
 DOI: 10.1080/00268976.2014.952696

 Q-Chem 5.1.1 for Intel X86 EM64T Linux

 Parts of Q-Chem use Armadillo 8.300.2 (Tropical Shenanigans).
 http://arma.sourceforge.net/

 Q-Chem begins on Tue Oct 30 21:59:06 2018  

Host: cub-0-22.local
0

     Scratch files written to /scr/c295_lal/137015/qchem6442//
 Aug318 |scratch|qcdevops|jenkins|workspace|build_RNUM -1
Processing $rem in /usr/software/qchem_511/config/preferences.
 MEM_TOTAL  2000 
Input Ideriv = 2
Curr. Ideriv = -1
Max.  Ideriv = 2

Checking the input file for inconsistencies... 	...done.

--------------------------------------------------------------
User input:
--------------------------------------------------------------
$molecule
3 4
Fe        -2.02188        8.67392        5.29699
N         -1.00586       12.49034        5.96233
C         -1.09101       11.63863        4.92061
N         -2.35758       11.47719        4.49788
C         -3.10966       12.25082        5.29529
C         -2.27597       12.87503        6.19604
H         -4.18471       12.35236        5.22619
H         -2.57367       13.56458        6.97439
H         -0.23802       11.14270        4.47677
H         -2.68725       10.87430        3.71210
H         -6.69688       10.49875        5.73540
C         -6.21811        9.67053        6.24071
H         -4.43511        9.41418        5.08715
N         -5.04434        9.12737        5.88410
C         -6.68608        8.99216        7.34379
C         -4.81620        8.13753        6.76571
H         -7.60843        9.18779        7.87375
N         -5.80521        8.02765        7.67553
H         -3.94067        7.50246        6.74844
H         -4.45295       11.84757        8.00825
C         -4.17766       11.10860        8.74811
H         -2.26722       10.44998        8.04178
N         -3.03943       10.39795        8.74217
C         -4.91561       10.72725        9.84571
C         -3.10019        9.60335        9.82570
H         -5.88483       11.11237       10.13223
N         -4.23936        9.78030       10.52481
H         -2.32626        8.90233       10.10609
H         -1.36181        7.50756        7.52958
C         -0.43836        7.89911        7.93473
H          0.17865        9.26687        6.40863
N          0.34070        8.81100        7.33317
C          0.14393        7.56460        9.13674
C          1.37475        9.01644        8.16827
H         -0.23785        6.85601        9.85936
N          1.28451        8.26668        9.28535
H          2.18615        9.70351        7.96782

$end

$rem
BASIS = 6-31G(d,p)
METHOD  = BLYP
JOBTYPE = OPT
MAX_SCF_CYCLES = 1000
$end
--------------------------------------------------------------
 ----------------------------------------------------------------
             Standard Nuclear Orientation (Angstroms)
    I     Atom           X                Y                Z
 ----------------------------------------------------------------
    1      Fe     -0.7006322446    -1.1634826247    -1.7367805958
    2      N      -1.2285858140    -2.5064131631     1.9992384312
    3      C      -1.2244508796    -2.9988275914     0.7441081837
    4      N       0.0221950177    -3.1767360288     0.2716828604
    5      C       0.8448148131    -2.7850237833     1.2564917760
    6      C       0.0733672440    -2.3734288740     2.3202050744
    7      H       1.9254930733    -2.7977837283     1.2036773278
    8      H       0.4352878522    -1.9986750158     3.2681007618
    9      H      -2.1213205503    -3.2243957620     0.1826135313
   10      H       0.2935294347    -3.5433906851    -0.6672265424
   11      H       4.1575819238    -1.2384028167    -0.4063765535
   12      C       3.5598355962    -0.4426757092    -0.8306700554
   13      H       1.7938146865    -1.4858799274    -1.4376297754
   14      N       2.3363080533    -0.5981815728    -1.3586168034
   15      C       3.9020480060     0.8875096091    -0.9279580285
   16      C       1.9545912844     0.6259556360    -1.7646311870
   17      H       4.8258409384     1.3386307462    -0.5918708987
   18      N       2.8931940921     1.5612056120    -1.5149932921
   19      H       1.0044852797     0.8374011139    -2.2365997543
   20      H       2.0424080614    -0.1037649952     2.0954269770
   21      C       1.6509764850     0.8720005159     1.8426087561
   22      H      -0.3072361208     0.4007868073     1.1174712532
   23      N       0.4303264142     1.1060931297     1.3368021806
   24      C       2.2997108352     2.0789684675     1.9733600160
   25      C       0.3543972015     2.4385546898     1.1697718119
   26      H       3.3019709066     2.2308773840     2.3504501426
   27      N       1.4855698121     3.0656652144     1.5505017666
   28      H      -0.5125177911     2.9505037537     0.7755868441
   29      H      -1.5737242127     1.2855832919    -1.5941877701
   30      C      -2.4497513055     1.3683947065    -0.9649528141
   31      H      -2.8369577697    -0.6752838372    -0.4610687680
   32      N      -3.0846810908     0.3358416650    -0.3895827823
   33      C      -3.1063348925     2.5257259476    -0.6110191821
   34      C      -4.1074487223     0.8732817748     0.2988658405
   35      H      -2.8421417159     3.5307142191    -0.9114121922
   36      N      -4.1493044125     2.2161289703     0.1841463898
   37      H      -4.8157641357     0.2957885722     0.8780085029
 ----------------------------------------------------------------
 Molecular Point Group                 C1    NOp =  1
 Largest Abelian Subgroup              C1    NOp =  1
 Nuclear Repulsion Energy =  1965.3852974557 hartrees
 There are       85 alpha and       82 beta electrons
 Requested basis set is 6-31G(d,p)
 There are 136 shells and 416 basis functions

 Total QAlloc Memory Limit   2000 MB
 Mega-Array Size       188 MB
 MEM_STATIC part       192 MB
 A cutoff of  1.0D-11 yielded   5798 shell pairs
 There are     55859 function pairs (     56708 Cartesian)
 
 -------------------------------------------------------
 OpenMP Integral Computing Module                       
 Release: version 1.0, May 2013, Q-Chem Inc. Pittsburgh 
 -------------------------------------------------------
 Integral Job Info:
 Integral job number is                      11
 Integral operator is                         1
 short-range coefficients                     0
 long-range coefficients              100000000
 Omega coefficients                           0
 if combine SR and LR in K                    0
 Integral screening is                        0
 Integral computing path is                   2
 max size of driver memory is            800000
 size of driver memory is                776718
 size of scratch memory is             15447240
 max col of scratch BK array              10000
 max len of scratch array in speh3          662
 max len of scratch index in speh4           32
 max int batch size is                      520
 min int batch size is                       52
 fixed nKL is                                52
 max L of basis functions is                  3
 order of int derivative is                   0
 number of shells is                        136
 number of basis is                         419
 number of cartesian basis is               419
 number of contracted shell pairs          5798
 number of primitive shell pairs          17726
 maxK2 (contraction) of shell pair           36
 max number of K2 of shell pair               1
 max number of CS2 of shell pair            558
 max number of PS2 of shell pair           2706
 mem total for path MDJ                  608940
 -------------------------------------------------------
 Smallest overlap matrix eigenvalue = 1.53E-03

 Scale SEOQF with 1.000000e-01/1.000000e-01/1.000000e-01

 Standard Electronic Orientation quadrupole field applied
 Nucleus-field energy     =     0.0000000391 hartrees
 Guess from superposition of atomic densities
 Warning:  Energy on first SCF cycle will be non-variational
 SAD guess density has 169.991007 electrons

 -----------------------------------------------------------------------
  General SCF calculation program by
  Eric Jon Sundstrom, Paul Horn, Yuezhi Mao, Dmitri Zuev, Alec White,
  David Stuck, Shaama M.S., Shane Yost, Joonho Lee, David Small,
  Daniel Levine, Susi Lehtola, Hugh Burton, Evgeny Epifanovsky
 -----------------------------------------------------------------------
 Exchange:  B88      Correlation:  LYP
 Using SG-1 standard quadrature grid
 using 12 threads for integral computing
 -------------------------------------------------------
 OpenMP Integral computing Module                
 Release: version 1.0, May 2013, Q-Chem Inc. Pittsburgh 
 -------------------------------------------------------
 -------------------------------------------------------
 OpenMP BLAS3 based DFT computing Module                
 Release: version 1.0, May 2013, Q-Chem Inc. Pittsburgh 
 -------------------------------------------------------
 A unrestricted SCF calculation will be
 performed using DIIS
 SCF converges when DIIS error is below 1.0e-08
 ---------------------------------------
  Cycle       Energy         DIIS error
 ---------------------------------------
    1   -2172.5633676377      3.13e-02  
    2   -2164.9290120566      3.53e-03  
    3   -2103.0660121161      2.16e-02  
    4   -2146.5639307334      1.43e-02  
    5   -2147.1542597713      1.25e-02  
    6   -2153.2776613192      1.13e-02  
    7   -2155.7504499118      1.03e-02  
    8   -2153.4500786966      1.07e-02  
    9   -2156.4073699530      9.95e-03  
   10   -2156.6888110836      9.84e-03  
   11   -2157.5472949338      9.58e-03  
   12   -2157.1102857773      9.63e-03  
   13   -2157.4342347016      9.46e-03  
   14   -2157.8360509763      9.42e-03  
   15   -2157.7883071034      9.41e-03  
   16   -2158.0686769511      9.32e-03  
   17   -2157.7150377987      9.39e-03  
   18   -2065.5844447249      1.66e-02  
   19   -2141.1678869462      1.58e-02  
   20   -2140.3096868432      1.52e-02  
   21   -2138.6848847190      1.57e-02  
   22   -2119.7381385437      1.70e-02  
   23   -2134.9514872685      1.60e-02  
   24   -2128.2652171341      1.73e-02  
   25   -2128.1483662301      1.73e-02  
   26   -2127.3234984101      1.71e-02  
   27   -2125.5880697025      1.73e-02  
   28   -2126.4628322881      1.71e-02  
   29   -2099.6856580194      2.18e-02  
   30   -2080.1916000378      2.36e-02  
   31   -2087.2757031014      2.31e-02  
   32   -2088.8040822024      2.29e-02  
   33   -2102.2189260785      2.34e-02  
   34   -1718.3590684869      4.22e-02  
   35   -2072.8247236640      1.63e-02  
   36   -2051.4657153190      3.24e-02  
   37   -2106.1706697633      2.40e-02  
   38   -2113.2674331995      2.27e-02  
   39   -2085.2087532452      2.91e-02  
   40   -2083.0575006621      2.95e-02  
   41   -2083.1300074289      2.95e-02  
   42   -2081.7136669936      2.81e-02  
   43   -2086.6532390346      2.74e-02  
   44   -2011.5195423262      2.84e-02  
   45   -2122.3581055713      1.86e-02  
   46   -2110.6857496982      2.02e-02  
   47   -2123.7769529647      1.82e-02  
   48   -2109.4204623709      1.99e-02  
   49   -2112.5048367847      1.95e-02  
   50   -2125.4312260687      1.81e-02  
   51   -1921.8291027060      3.06e-02  
   52   -2048.4165801502      1.98e-02  
   53   -2057.7056718710      2.25e-02  
   54   -2122.6085039913      1.84e-02  
   55   -2122.5702994796      1.83e-02  
   56   -2125.9679032172      1.80e-02  
   57   -2127.6874449116      1.78e-02  
   58   -2123.0341257339      1.80e-02  
   59   -2128.7274754482      1.76e-02  
   60   -2072.8968937925      3.29e-02  
   61   -2097.3116983214      2.58e-02  
   62   -2100.6571770753      2.62e-02  
   63   -2102.5719954886      2.54e-02  
   64   -2104.9108175305      2.43e-02  
   65   -2104.5626033867      2.45e-02  
   66   -2088.4931647251      2.76e-02  
   67   -2032.3165185151      2.64e-02  
   68   -1680.9353718178      3.85e-02  
   69   -1961.1874191783      3.01e-02  
   70   -2070.9419914693      1.90e-02  
   71   -1956.5551841430      3.45e-02  
   72   -1962.6543902837      3.36e-02  
   73   -1967.0329761631      3.35e-02  
   74   -1948.0823669517      3.63e-02  
   75   -1897.1834812162      3.20e-02  
   76   -1937.2657518833      3.30e-02  
   77   -1945.6531446568      3.24e-02  
   78   -1950.6756161884      3.22e-02  
   79   -1949.3687490872      3.25e-02  
   80   -1951.5461009754      3.24e-02  
   81   -1925.1431631615      3.36e-02  
   82   -1865.7483123838      3.59e-02  
   83   -1906.1564902177      3.31e-02  
   84   -2117.4897794442      1.72e-02  
   85   -1855.0046164073      3.54e-02  
   86   -1801.3279203494      3.13e-02  
   87   -2080.7809618170      1.98e-02  
   88   -2035.5541114414      2.54e-02  
   89   -2058.1997758581      2.07e-02  
   90   -2143.3523228607      1.27e-02  
   91   -2124.8687977205      1.77e-02  
   92   -2132.8600442856      1.63e-02  
   93   -2133.4843955259      1.61e-02  
   94   -2133.8380696866      1.60e-02  
   95   -2128.9789256268      1.70e-02  
   96   -2133.5965764091      1.64e-02  
   97   -2123.3836594944      1.73e-02  
   98   -2110.3040815890      1.92e-02  
   99   -2115.3326947323      1.67e-02  
  100   -2147.3713546664      1.28e-02  
  101   -2148.1627748017      1.24e-02  
  102   -2150.4833856863      1.03e-02  
  103   -2081.7007293691      2.25e-02  
  104   -2130.2711934295      1.71e-02  
  105   -2142.5224421890      1.53e-02  
  106   -2141.3319621012      1.51e-02  
  107   -2150.0608416531      1.36e-02  
  108   -2148.2570979939      1.37e-02  
  109   -2147.2675379587      1.43e-02  
  110   -2147.1474862648      1.44e-02  
  111   -2146.9956850068      1.45e-02  
  112   -2147.9321814793      1.41e-02  
  113   -2145.4863144213      1.44e-02  
  114   -2147.9410276901      1.35e-02  
  115   -2149.6528057375      1.35e-02  
  116   -2150.8412643818      1.35e-02  
  117   -2140.1608756434      1.53e-02  
  118   -1950.1364622729      2.63e-02  
  119   -2076.5973206944      2.30e-02  
  120   -2121.8565204355      1.66e-02  
  121   -2154.8048795615      1.17e-02  
  122   -2144.5076401263      1.24e-02  
  123   -2158.8515410245      9.68e-03  
  124   -2150.9343263120      1.01e-02  
  125   -2139.0032878716      1.57e-02  
  126   -2139.2957710943      1.57e-02  
  127   -2139.2361662210      1.57e-02  
  128   -2139.1066798080      1.56e-02  
  129   -2139.0116873951      1.56e-02  
  130   -2139.0603642114      1.56e-02  
  131   -2138.8704187897      1.57e-02  
  132   -2139.4354903338      1.57e-02  
  133   -2139.3952963792      1.56e-02  
  134   -2152.0569481607      1.21e-02  
  135   -2150.8621336624      1.21e-02  
  136   -2154.8825034293      1.12e-02  
  137   -2148.1534638901      1.37e-02  
  138   -2148.2077645119      1.39e-02  
  139   -2145.4253195695      1.49e-02  
  140   -2015.6863227458      1.85e-02  
  141   -2081.0464867116      2.07e-02  
  142   -2104.1102654549      1.92e-02  
  143   -2104.6862835413      1.91e-02  
  144   -2104.7819729589      1.90e-02  
  145   -2104.8364780485      1.90e-02  
  146   -2104.9126462653      1.90e-02  
  147   -2104.7261368955      1.91e-02  
  148   -2105.8911812352      1.94e-02  
  149   -2092.2603233520      1.96e-02  
  150   -2098.0325139013      1.97e-02  
  151   -2097.4066218011      2.04e-02  
  152   -2053.7939435290      2.12e-02  
  153   -2022.5249139658      2.41e-02  
  154   -2054.4599015560      2.39e-02  
  155   -2057.9819527631      3.18e-02  
  156   -1037.9682932662      6.58e-02  
  157   -1632.7220751449      4.44e-02  
  158   -1954.2246634529      2.57e-02  
  159   -2149.8085536469      1.22e-02  
  160   -2059.9272517165      2.04e-02  
  161   -2141.1722277386      1.25e-02  
  162   -2108.3682103639      1.91e-02  
  163   -2139.8383185249      1.58e-02  
  164   -2140.9470171767      1.58e-02  
  165   -2140.7924987775      1.59e-02  
  166   -2141.0289406505      1.58e-02  
  167   -2140.7980901870      1.59e-02  
  168   -2140.7062096604      1.58e-02  
  169   -2137.9108330290      1.61e-02  
  170   -2109.2823084898      2.01e-02  
  171   -2107.2169333164      2.04e-02  
  172   -2103.5720099232      2.13e-02  
  173   -2096.8189217572      2.24e-02  
  174   -1982.4478959779      2.95e-02  
  175   -2124.2236160441      1.81e-02  
  176   -2093.9817401502      1.72e-02  
  177   -1785.0155009666      4.46e-02  
  178   -2069.3610774970      2.26e-02  
  179   -2147.8160104068      9.88e-03  
  180   -2114.7376119714      1.81e-02  
  181   -2128.4660409301      1.68e-02  
  182   -2128.7178082810      1.68e-02  
  183   -2128.6652021585      1.68e-02  
  184   -2130.3528307301      1.66e-02  
  185   -2128.9565119788      1.68e-02  
  186   -2129.6795595622      1.67e-02  
  187   -2129.7846245318      1.67e-02  
  188   -2129.4566515951      1.67e-02  
  189   -2122.6724114948      1.76e-02  
  190   -2125.9841764403      1.72e-02  
  191   -2109.4730201812      2.02e-02  
  192   -2119.8722307610      1.84e-02  
  193   -2138.3293497418      1.66e-02  
  194   -2135.2581574248      1.67e-02  
  195   -1909.0574066600      3.05e-02  
  196   -2075.2557605305      2.05e-02  
  197   -2015.9692407491      2.79e-02  
  198   -2103.8565905707      1.94e-02  
  199   -2143.3479070989      1.41e-02  
  200   -2130.7406098082      1.59e-02  
  201   -2146.1601402102      1.37e-02  
  202   -2153.3419099196      1.21e-02  
  203   -2125.8576754845      1.67e-02  
  204   -2129.9114045944      1.65e-02  
  205   -2126.0910050591      1.66e-02  
  206   -2131.3232716974      1.60e-02  
  207   -2127.0337705958      1.67e-02  
  208   -2132.8649606530      1.57e-02  
  209   -2128.4217461645      1.68e-02  
  210   -2106.8003160920      1.83e-02  
  211   -1998.3897899323      2.95e-02  
  212   -1882.8777802502      3.96e-02  
  213   -2080.2032864605      2.03e-02  
  214   -2147.5080398162      9.01e-03  
  215   -2119.2864686464      1.89e-02  
  216   -2125.2484215518      1.80e-02  
  217   -2122.8991308051      1.82e-02  
  218   -2110.1542255576      1.90e-02  
  219   -2126.0353950781      1.74e-02  
  220   -2129.7698118258      1.72e-02  
  221   -2130.9304289204      1.70e-02  
  222   -2129.0491346827      1.71e-02  
  223   -2129.1322585831      1.71e-02  
  224   -2128.8956729510      1.71e-02  
  225   -2126.7607733337      1.73e-02  
  226   -2129.0021231118      1.77e-02  
  227   -2125.8967263897      1.75e-02  
  228   -2125.9823925552      1.75e-02  
  229   -2120.0941980169      1.80e-02  
  230   -1916.5392094788      3.01e-02  
  231   -2069.2460244805      2.06e-02  
  232   -2028.1472419193      2.75e-02  
  233   -2094.1693622067      2.14e-02  
  234   -2124.6834091687      1.86e-02  
  235   -2124.1016867003      1.81e-02  
  236   -2130.8531037200      1.77e-02  
  237   -2121.6614860823      1.70e-02  
  238   -2132.7632762296      1.59e-02  
  239   -2105.3958481601      1.88e-02  
  240   -2124.7845797158      1.63e-02  
  241   -2130.1455909081      1.63e-02  
  242   -2130.6524183177      1.69e-02  
  243   -2130.9229122897      1.69e-02  
  244   -2136.3621023721      1.72e-02  
  245   -2132.2936967510      1.74e-02  
  246   -2007.5010017689      2.71e-02  
  247   -1678.2686438921      4.42e-02  
  248   -1965.3200048666      2.65e-02  
  249   -2142.9280803515      9.78e-03  
  250   -2098.9299005740      2.13e-02  
  251   -2116.3202761647      1.92e-02  
  252   -2112.2213809783      1.94e-02  
  253   -2114.7499560707      1.98e-02  
  254   -2094.8193518000      2.08e-02  
  255   -2106.0032257718      2.01e-02  
  256   -2108.8776020818      1.94e-02  
  257   -2113.6198420412      1.98e-02  
  258   -2110.5648841719      1.94e-02  
  259   -2115.4668739718      1.93e-02  
  260   -2114.4649816791      1.96e-02  
  261   -2087.2860979089      2.48e-02  
  262   -2091.4043514862      2.22e-02  
  263   -2121.2694220700      1.86e-02  
  264   -2094.6756452376      2.18e-02  
  265   -1483.2058531688      5.29e-02  
  266   -2018.9937439377      2.06e-02  
  267   -2088.1174273305      2.40e-02  
  268   -2102.0425981150      2.20e-02  
  269   -2088.0010597222      2.35e-02  
  270   -2096.7866055498      2.29e-02  
  271   -2094.7781335892      2.31e-02  
  272   -2094.3815337729      2.30e-02  
  273   -2095.8250452462      2.32e-02  
  274   -2089.0054761537      2.38e-02  
  275   -2087.7688230422      2.41e-02  
  276   -2076.0962244500      2.44e-02  
  277   -2084.7005975547      2.40e-02  
  278   -2083.0672482515      2.48e-02  
  279   -2059.2261021344      3.20e-02  
  280   -1986.7997921072      3.11e-02  
  281   -2104.4526705379      1.98e-02  
  282   -1872.3253237332      3.28e-02  
  283   -1951.4605072241      2.91e-02  
  284   -2100.4060844794      1.70e-02  
  285   -2058.3595756688      2.30e-02  
  286   -2138.0875874358      1.09e-02  
  287   -2076.2491465265      2.06e-02  
  288   -2125.5233200021      1.72e-02  
  289   -2126.2935949260      1.69e-02  
  290   -2126.1847098967      1.69e-02  
  291   -2125.5019403701      1.71e-02  
  292   -2123.1585578466      1.72e-02  
  293   -2123.2129345207      1.71e-02  
  294   -2121.9435371099      1.76e-02  
  295   -2122.8810315712      1.72e-02  
  296   -2121.2368032362      1.87e-02  
  297   -2111.3655853610      1.97e-02  
  298   -2128.3997716582      1.68e-02  
  299   -2120.2082428948      1.75e-02  
  300   -2050.9866707192      2.18e-02  
  301   -2085.3099450846      2.04e-02  
  302   -1808.5831320222      3.10e-02  
  303   -1938.8374847971      3.16e-02  
  304   -2139.2463150044      1.26e-02  
  305   -2086.9141588873      2.29e-02  
  306   -2106.7323422403      2.11e-02  
  307   -2106.8141180254      2.10e-02  
  308   -2106.6141993349      2.10e-02  
  309   -2108.1027294228      2.09e-02  
  310   -2107.6395336616      2.09e-02  
  311   -2101.4243207215      2.17e-02  
  312   -2100.9731235611      2.18e-02  
  313   -2105.1153290644      2.08e-02  
  314   -2103.4161861471      2.00e-02  
  315   -2077.9672695660      1.96e-02  
  316   -2127.9930052741      1.76e-02  
  317   -2127.2563384025      1.75e-02  
  318   -2153.1155982301      1.24e-02  
  319   -2019.4564236171      2.69e-02  
  320   -1927.3008736899      2.75e-02  
  321   -2113.3838033112      1.79e-02  
  322   -2123.8995585511      1.73e-02  
  323   -2150.3754986926      1.35e-02  
  324   -2149.6167069644      1.37e-02  
  325   -2151.3051104586      1.30e-02  
  326   -2148.4816637489      1.40e-02  
  327   -2150.3273713918      1.38e-02  
  328   -2151.5399302808      1.33e-02  
  329   -2149.9094416286      1.38e-02  
  330   -2150.1604879109      1.33e-02  
  331   -2152.2849558796      1.25e-02  
  332   -2155.6207708137      1.16e-02  
  333   -2154.4909378674      1.16e-02  
  334   -2150.2294422814      1.22e-02  
  335   -2153.3160744270      1.07e-02  
  336   -2128.4414365070      1.27e-02  
  337   -2027.8679376196      2.69e-02  
  338   -2079.9276088033      1.99e-02  
  339   -2111.2238938203      1.79e-02  
  340   -2123.3113173044      1.54e-02  
  341   -2126.2589843964      1.50e-02  
  342   -2131.3264239991      1.43e-02  
  343   -2129.0210490204      1.56e-02  
  344   -2129.8702532029      1.51e-02  
  345   -2133.1062539558      1.38e-02  
  346   -2138.4220553266      1.32e-02  
  347   -2136.5101095325      1.32e-02  
  348   -2129.1266386798      1.36e-02  
  349   -2141.2613867050      1.22e-02  
  350   -2145.2246713755      1.19e-02  
  351   -2151.0840891744      1.30e-02  
  352   -1796.9228348854      3.95e-02  
  353   -2052.1198785140      1.90e-02  
  354   -2153.4224599956      1.26e-02  
  355   -2155.4233670937      1.16e-02  
  356   -2156.4411382829      1.09e-02  
  357   -2155.6453912005      1.11e-02  
  358   -2156.4681409459      1.11e-02  
  359   -2156.7388091628      1.10e-02  
  360   -2156.7357425938      1.10e-02  
  361   -2156.7062045612      1.10e-02  
  362   -2154.1236739754      1.15e-02  
  363   -2154.9482909718      1.12e-02  
  364   -2155.6902630830      1.12e-02  
  365   -2151.7854325100      1.22e-02  
  366   -2138.9747397107      1.42e-02  
  367   -2139.9892779847      1.39e-02  
  368   -2151.8485693816      1.17e-02  
  369   -2011.3676892886      1.91e-02  
  370   -2136.1844740752      1.57e-02  
  371   -2118.3456364578      1.75e-02  
  372   -2114.3602344614      1.85e-02  
  373   -2125.6254062771      1.70e-02  
  374   -2126.1842682881      1.66e-02  
  375   -2128.7751981630      1.62e-02  
  376   -2121.5084501100      1.71e-02  
  377   -2123.0319037738      1.77e-02  
  378   -2116.0548179642      1.78e-02  
  379   -2121.1592375747      1.78e-02  
  380   -2109.2376586074      1.87e-02  
  381   -2120.3632675652      1.75e-02  
  382   -2120.4184130973      1.76e-02  
  383   -2119.5306238225      1.78e-02  
  384   -2125.8061524954      1.75e-02  
  385   -1611.0492471801      4.22e-02  
  386   -2046.7311542655      2.03e-02  
  387   -2055.6981721779      2.47e-02  
  388   -2108.5183490009      1.95e-02  
  389   -2115.8145245092      1.87e-02  
  390   -2115.8557178246      1.87e-02  
  391   -2120.6904516268      1.80e-02  
  392   -2120.8762740189      1.85e-02  
  393   -2124.3567359632      1.81e-02  
  394   -2122.5504667917      1.88e-02  
  395   -2088.2565962175      2.27e-02  
  396   -2097.3452011253      2.18e-02  
  397   -2101.3721150290      2.05e-02  
  398   -2101.9368229804      2.04e-02  
  399   -2087.7729717591      2.16e-02  
  400   -2090.5995940460      2.11e-02  
  401   -2113.2995365873      1.89e-02  
  402   -1725.7927557053      3.90e-02  
  403   -2024.5792288005      2.30e-02  
  404   -2068.8860784898      2.47e-02  
  405   -2127.5449497182      1.75e-02  
  406   -2129.5895463096      1.74e-02  
  407   -2133.6157049260      1.72e-02  
  408   -2130.9362620306      1.71e-02  
  409   -2130.5600118016      1.73e-02  
  410   -2131.1063166590      1.73e-02  
  411   -2129.4772010318      1.74e-02  
  412   -2130.8541505675      1.73e-02  
  413   -2131.0337357830      1.72e-02  
  414   -2129.7440888531      1.73e-02  
  415   -2131.5405487991      1.72e-02  
  416   -2132.0419541568      1.71e-02  
  417   -2130.2925543564      1.76e-02  
  418   -2045.6676825315      2.24e-02  
  419   -1653.6823476005      4.20e-02  
  420   -2053.4682858839      1.98e-02  
  421   -2124.8521713944      1.70e-02  
  422   -2137.5908358932      1.60e-02  
  423   -2140.2389069517      1.52e-02  
  424   -2138.1526276037      1.55e-02  
  425   -2146.3849805323      1.42e-02  
  426   -2143.6879763663      1.42e-02  
  427   -2144.5213345073      1.34e-02  
  428   -2146.1727091663      1.36e-02  
  429   -2154.2134264398      1.19e-02  
  430   -2151.0112376230      1.20e-02  
  431   -2156.4035549598      1.06e-02  
  432   -2150.2558663370      1.18e-02  
  433   -2156.2350254573      9.83e-03  
  434   -2118.1412772716      1.43e-02  
  435   -2157.2776986180      8.90e-03  
  436   -2099.2754863181      1.95e-02  
  437   -2151.2318504695      7.85e-03  
  438   -2141.0051158795      1.55e-02  
  439   -2140.4749502634      1.56e-02  
  440   -2140.2918410125      1.56e-02  
  441   -2140.1283304339      1.56e-02  
  442   -2139.9683978431      1.57e-02  
  443   -2139.5022131495      1.58e-02  
  444   -2139.8202605803      1.57e-02  
  445   -2138.3183053208      1.59e-02  
  446   -2139.2402042052      1.57e-02  
  447   -2138.5932530052      1.56e-02  
  448   -2138.5700482613      1.56e-02  
  449   -2136.1525672632      1.60e-02  
  450   -2112.9351612102      1.79e-02  
  451   -2125.1851707652      1.77e-02  
  452   -2131.0117025997      1.70e-02  
  453   -1954.8577467977      2.53e-02  
  454   -2037.7377940501      2.48e-02  
  455   -2139.6536404241      1.31e-02  
  456   -2115.3756582252      1.66e-02  
  457   -2138.7308885178      1.53e-02  
  458   -2137.6932879792      1.57e-02  
  459   -2137.7276550299      1.57e-02  
  460   -2135.2639590757      1.59e-02  
  461   -2133.8346314165      1.59e-02  
  462   -2137.0327183519      1.58e-02  
  463   -2136.8931304038      1.58e-02  
  464   -2135.2916560661      1.62e-02  
  465   -2139.0065383500      1.55e-02  
  466   -2136.9370266983      1.58e-02  
  467   -2136.3195723546      1.58e-02  
  468   -2114.7671439452      1.76e-02  
  469   -2139.8474038123      1.08e-02  
  470   -2046.5901072770      2.56e-02  
  471   -2126.4100229961      1.81e-02  
  472   -2068.6586748377      2.40e-02  
  473   -2079.1249287495      2.22e-02  
  474   -2094.4949190251      2.10e-02  
  475   -2097.3228578977      2.07e-02  
  476   -2096.8392719362      2.08e-02  
  477   -2094.7689458989      2.12e-02  
  478   -2094.5340504780      2.13e-02  
  479   -2095.0663568590      2.11e-02  
  480   -2094.2035123557      2.17e-02  
  481   -2086.8086739784      2.08e-02  
  482   -2090.1632863936      2.11e-02  
  483   -2101.3192399855      2.02e-02  
  484   -2111.6502257216      1.99e-02  
  485   -1670.4925622180      4.20e-02  
  486   -2040.1297707556      2.11e-02  
  487   -1905.7518185306      3.55e-02  
  488   -2037.8785989869      2.55e-02  
  489   -2108.9806583423      2.02e-02  
  490   -2129.1112335347      1.76e-02  
  491   -2118.0267000165      1.86e-02  
  492   -2127.4523710369      1.77e-02  
  493   -2128.6976362362      1.77e-02  
  494   -2127.8016304470      1.77e-02  
  495   -2127.4416433675      1.77e-02  
  496   -2128.7080941066      1.77e-02  
  497   -2128.0223633946      1.78e-02  
  498   -2128.6365359821      1.76e-02  
  499   -2127.3550870453      1.80e-02  
  500   -2123.4936304545      1.88e-02  
  501   -2078.5120747704      2.19e-02  
  502   -1805.5900885865      3.37e-02  
  503   -2040.5292257466      2.30e-02  
  504   -2046.3397583412      2.59e-02  
  505   -2152.5026111356      1.00e-02  
  506   -2104.7669730516      1.74e-02  
  507   -2139.3412901219      1.08e-02  
  508   -2154.2570714786      1.13e-02  
  509   -2144.4016267560      1.29e-02  
  510   -2152.2784671366      1.21e-02  
  511   -2152.2140577606      1.22e-02  
  512   -2152.0937756169      1.23e-02  
  513   -2152.2137662347      1.23e-02  
  514   -2148.6157890083      1.30e-02  
  515   -2150.7351906471      1.28e-02  
  516   -2150.9322982084      1.14e-02  
  517   -2156.4435982705      1.05e-02  
  518   -2157.8058529401      1.00e-02  
  519   -2141.6962744741      1.28e-02  
  520   -2144.7867938707      1.23e-02  
  521   -2149.3355128101      1.18e-02  
  522   -2101.9659886162      1.84e-02  
  523   -2044.8221012455      1.97e-02  
  524   -2126.1701918950      1.46e-02  
  525   -2155.7599239409      9.63e-03  
  526   -2150.2798879407      1.09e-02  
  527   -2160.6550130988      8.59e-03  
  528   -2154.3940826456      9.60e-03  
  529   -2155.6728819633      9.76e-03  
  530   -2158.1607842233      9.17e-03  
  531   -2156.1864166752      9.40e-03  
  532   -2158.0809735075      9.12e-03  
  533   -2156.0245790499      9.37e-03  
  534   -2150.8484791650      1.05e-02  
  535   -2157.2378020974      9.75e-03  
  536   -2156.0808851679      1.02e-02  
  537   -2152.0546539631      1.04e-02  
  538   -2157.5964286589      9.04e-03  
  539   -2061.1033995399      1.73e-02  
  540   -2155.0442316950      1.07e-02  
  541   -2150.2509083492      1.21e-02  
  542   -2153.8425096512      1.14e-02  
  543   -2151.0665920535      1.23e-02  
  544   -2145.4221838514      1.34e-02  
  545   -2141.5352431311      1.42e-02  
  546   -2150.5507591912      1.24e-02  
  547   -2146.4758525101      1.32e-02  
  548   -2144.9546579309      1.37e-02  
  549   -2148.7827343460      1.33e-02  
  550   -2134.3492322121      1.48e-02  
  551   -2147.2174578535      1.37e-02  
  552   -2146.0172870707      1.39e-02  
  553   -2149.7423334697      1.33e-02  
  554   -2130.1936383371      1.63e-02  
  555   -1914.4440185068      3.04e-02  
  556   -2116.8564450534      1.77e-02  
  557   -2118.1146092330      1.72e-02  
  558   -2140.3180600812      1.50e-02  
  559   -2140.8466186135      1.51e-02  
  560   -2125.7467133069      1.56e-02  
  561   -2133.6005297182      1.60e-02  
  562   -2149.4851919746      1.31e-02  
  563   -2149.5508041650      1.27e-02  
  564   -2149.6805895998      1.28e-02  
  565   -2153.4915581876      1.21e-02  
  566   -2133.7871156579      1.57e-02  
  567   -2143.5828786407      1.33e-02  
  568   -2149.1064544767      1.26e-02  
  569   -2149.8131010469      1.26e-02  
  570   -2152.3519317523      1.15e-02  
  571   -2103.9401139862      1.72e-02  
  572   -1926.5343349074      3.59e-02  
  573   -2104.3740522862      1.88e-02  
  574   -2159.5465730296      8.68e-03  
  575   -2156.6362904506      7.85e-03  
  576   -2144.1916725508      1.19e-02  
  577   -2158.7870870216      9.11e-03  
  578   -2161.3269261642      8.21e-03  
  579   -2160.6141052455      8.19e-03  
  580   -2161.4016804000      7.92e-03  
  581   -2159.8336188942      8.64e-03  
  582   -2161.3237367447      8.11e-03  
  583   -2161.4714010884      8.04e-03  
  584   -2161.1681477992      8.03e-03  
  585   -2160.4169050299      8.32e-03  
  586   -2162.9753754333      6.83e-03  
  587   -2154.0136548222      8.17e-03  
  588   -2156.5371906040      9.85e-03  
  589   -2156.9662441207      9.65e-03  
  590   -2158.1424295441      9.54e-03  
  591   -2109.0176993042      1.99e-02  
  592   -2149.5542969876      1.27e-02  
  593   -2151.3317671551      1.21e-02  
  594   -2151.9211046795      1.20e-02  
  595   -2151.0923488023      1.23e-02  
  596   -2150.2797285882      1.26e-02  
  597   -2150.2042407834      1.27e-02  
  598   -2150.3698580697      1.27e-02  
  599   -2137.3763668742      1.39e-02  
  600   -2139.7795051254      1.44e-02  
  601   -2139.7942740858      1.41e-02  
  602   -2136.5011943562      1.55e-02  
  603   -2010.5767548763      2.56e-02  
  604   -2146.6149594292      9.66e-03  
  605   -2111.3354968011      1.84e-02  
  606   -2127.1095788964      1.78e-02  
  607   -2130.7244031639      1.72e-02  
  608   -2130.7005356342      1.73e-02  
  609   -2129.7948721610      1.72e-02  
  610   -2122.7534875993      1.80e-02  
  611   -2119.8846331686      1.81e-02  
  612   -2119.9583179374      1.81e-02  
  613   -2119.9473895185      1.82e-02  
  614   -2105.5843229949      1.96e-02  
  615   -2117.7469831977      1.86e-02  
  616   -2118.1727282865      1.85e-02  
  617   -2123.2411307455      1.81e-02  
  618   -2122.9484862747      1.89e-02  
  619   -2129.5044142621      1.71e-02  
  620   -1852.0938768123      3.17e-02  
  621   -1974.5119385397      2.66e-02  
  622   -2063.9690218745      2.33e-02  
  623   -2145.5770659765      8.60e-03  
  624   -2070.2622953365      2.71e-02  
  625   -2087.4219573095      2.49e-02  
  626   -2089.1334839237      2.46e-02  
  627   -2089.2401580426      2.45e-02  
  628   -2089.7577311820      2.43e-02  
  629   -2092.9907417902      2.35e-02  
  630   -2092.8880618791      2.36e-02  
  631   -2092.3750027321      2.33e-02  
  632   -2092.6877121994      2.32e-02  
  633   -2092.2058567743      2.30e-02  
  634   -2087.0636092618      2.24e-02  
  635   -2026.5238732838      3.30e-02  
  636   -2063.7824227597      3.14e-02  
  637   -2072.5258867048      3.01e-02  
  638   -2018.0281567533      2.93e-02  
  639   -1569.6653972329      4.78e-02  
  640   -1894.7205612867      2.87e-02  
  641   -1755.8365241954      4.23e-02  
  642   -2098.1892046157      1.90e-02  
  643   -2119.1369718378      1.85e-02  
  644   -2124.6546571558      1.83e-02  
  645   -2149.3879096313      1.36e-02  
  646   -2125.5424305833      1.61e-02  
  647   -2150.8157287360      1.35e-02  
  648   -2144.0951563127      1.40e-02  
  649   -2152.8259243450      1.21e-02  
  650   -2156.4577540934      1.05e-02  
  651   -2129.9780757307      1.35e-02  
  652   -2148.6988734268      8.97e-03  
  653   -2135.1009210458      1.61e-02  
  654   -2131.0756050507      1.68e-02  
  655   -2132.3792419468      1.66e-02  
  656   -2133.6218153712      1.64e-02  
  657   -2133.1979322293      1.63e-02  
  658   -2124.8940974720      1.72e-02  
  659   -2135.0073380998      1.61e-02  
  660   -2131.1459049061      1.64e-02  
  661   -2129.8397513159      1.66e-02  
  662   -2131.4587037403      1.64e-02  
  663   -2129.7069816230      1.67e-02  
  664   -2129.6631326931      1.67e-02  
  665   -2131.1220391473      1.65e-02  
  666   -2084.2870364276      2.08e-02  
  667   -2127.7408736744      1.70e-02  
  668   -1869.2466652774      2.99e-02  
  669   -2023.2506363845      2.66e-02  
  670   -2142.7386325394      1.33e-02  
  671   -2102.9123138240      1.91e-02  
  672   -2163.5228028937      6.13e-03  
  673   -2148.3742023287      1.28e-02  
  674   -2155.8622958516      1.06e-02  
  675   -2155.5375319981      1.11e-02  
  676   -2154.8625118358      1.09e-02  
  677   -2154.6979325369      1.10e-02  
  678   -2155.4627412158      1.09e-02  
  679   -2154.7182579484      1.10e-02  
  680   -2155.4774942403      1.09e-02  
  681   -2154.5287349446      1.09e-02  
  682   -2156.4578832083      1.07e-02  
  683   -2158.3555203568      9.68e-03  
  684   -2165.0275525303      3.59e-03  
  685   -2158.7997005614      8.46e-03  
  686   -2165.7227094348      2.67e-03  
  687   -2165.8475342591      2.38e-03  
  688   -2166.0849956938      2.49e-03  
  689   -2165.5823638418      3.57e-03  
  690   -2166.6954707182      9.97e-04  
  691   -2162.3428426046      5.95e-03  
  692   -2163.5144797091      5.62e-03  
  693   -2163.2401365530      5.62e-03  
  694   -2163.1018267447      5.70e-03  
  695   -2163.1161697477      5.66e-03  
  696   -2163.4437107614      5.57e-03  
  697   -2164.9389036068      3.78e-03  
  698   -2164.1045360889      5.21e-03  
  699   -2164.5315223519      4.73e-03  
  700   -2162.2533902243      6.10e-03  
  701   -2162.7274577658      5.48e-03  
  702   -2164.1840404521      4.67e-03  
  703   -2160.8162275027      6.94e-03  
  704   -2163.9277363217      4.19e-03  
  705   -2164.6677268657      3.47e-03  
  706   -2132.2829303905      1.14e-02  
  707   -2165.4520262254      4.01e-03  
  708   -2166.3032757770      2.04e-03  
  709   -2161.9401398466      5.63e-03  
  710   -2166.6792843451      1.45e-03  
  711   -2166.0461982806      2.62e-03  
  712   -2166.6482565809      1.12e-03  
  713   -2166.7046970120      1.16e-03  
  714   -2166.8536648490      6.71e-04  
  715   -2166.7807280165      8.80e-04  
  716   -2166.8303114932      6.91e-04  
  717   -2166.8669051265      4.45e-04  
  718   -2166.8775918140      3.81e-04  
  719   -2166.8476415298      5.24e-04  
  720   -2166.9042322064      1.66e-04  
  721   -2166.9032375871      2.15e-04  
  722   -2166.9061175433      1.49e-04  
  723   -2166.9078883243      9.38e-05  
  724   -2166.9075868070      8.30e-05  
  725   -2166.9079811878      6.83e-05  
  726   -2166.9056415238      1.25e-04  
  727   -2166.9059763847      1.19e-04  
  728   -2166.9067342928      1.08e-04  
  729   -2166.9054709635      1.33e-04  
  730   -2166.9056302120      1.29e-04  
  731   -2166.9067509452      1.12e-04  
  732   -2166.9064033205      1.16e-04  
  733   -2166.9073985343      9.79e-05  
  734   -2166.9076607608      8.80e-05  
  735   -2166.9073648602      9.82e-05  
  736   -2166.9080170418      8.39e-05  
  737   -2166.9073038190      1.00e-04  
  738   -2166.9074149664      9.91e-05  
  739   -2166.9069264703      1.10e-04  
  740   -2166.9070374513      1.06e-04  
  741   -2166.9065220912      1.19e-04  
  742   -2166.9075822600      9.38e-05  
  743   -2166.9090167323      5.90e-05  
  744   -2166.9069527920      1.09e-04  
  745   -2166.9081127557      8.34e-05  
  746   -2166.9090709122      5.30e-05  
  747   -2166.9089304800      5.12e-05  
  748   -2166.9089983637      4.92e-05  
  749   -2166.9089978452      4.90e-05  
  750   -2166.9092407330      3.74e-05  
  751   -2166.9092364270      3.83e-05  
  752   -2166.9094313238      2.71e-05  
  753   -2166.9095186480      1.91e-05  
  754   -2166.9095313234      1.89e-05  
  755   -2166.9095848745      1.25e-05  
  756   -2166.9096181536      7.71e-06  
  757   -2166.9096528262      3.86e-06  
  758   -2166.9096572312      3.26e-06  
  759   -2166.9096669406      3.42e-06  
  760   -2166.9096673011      4.21e-06  
  761   -2166.9096644839      2.94e-06  
  762   -2166.9096725644      2.93e-06  
  763   -2166.9096788036      3.44e-06  
  764   -2166.9096809700      2.81e-06  
  765   -2166.9096876826      2.45e-06  
  766   -2166.9096970512      1.97e-06  
  767   -2166.9097135086      2.35e-06  
  768   -2166.9097219327      2.84e-06  
  769   -2166.9097697654      5.62e-06  
  770   -2166.9097393796      2.96e-06  
  771   -2166.9097730430      1.00e-05  
  772   -2166.9097563255      7.10e-06  
  773   -2166.9097246002      3.42e-06  
  774   -2166.9097558992      4.53e-06  
  775   -2166.9097802786      3.61e-06  
  776   -2166.9097919263      8.03e-06  
  777   -2166.9098002669      5.17e-06  
  778   -2166.9098083545      3.96e-06  
  779   -2166.9098091617      5.48e-06  
  780   -2166.9098062816      7.14e-06  
  781   -2166.9098158244      2.66e-06  
  782   -2166.9098204522      4.02e-06  
  783   -2166.9098212115      2.11e-06  
  784   -2166.9098237774      8.47e-07  
  785   -2166.9098248727      6.27e-07  
  786   -2166.9098256685      1.88e-06  
  787   -2166.9098241596      3.67e-06  
  788   -2166.9098260824      4.34e-07  
  789   -2166.9098258724      1.31e-06  
  790   -2166.9098261224      3.57e-07  
  791   -2166.9098260536      8.06e-07  
  792   -2166.9098260676      8.81e-07  
  793   -2166.9098259021      1.44e-06  
  794   -2166.9098260405      9.51e-07  
  795   -2166.9098261538      3.19e-07  
  796   -2166.9098261322      3.73e-07  
  797   -2166.9098261683      1.59e-07  
  798   -2166.9098261582      1.24e-07  
  799   -2166.9098261531      1.35e-07  
  800   -2166.9098261333      1.75e-07  
  801   -2166.9098261518      7.15e-08  
  802   -2166.9098261571      7.36e-08  
  803   -2166.9098261592      6.01e-08  
  804   -2166.9098261689      5.47e-08  
  805   -2166.9098261646      1.01e-07  
  806   -2166.9098261714      9.15e-08  
  807   -2166.9098261645      1.47e-07  
  808   -2166.9098261792      5.62e-08  
  809   -2166.9098261859      5.32e-08  
  810   -2166.9098261904      3.74e-08  
  811   -2166.9098261903      3.17e-08  
  812   -2166.9098261906      2.42e-08  
  813   -2166.9098261909      1.71e-08  
  814   -2166.9098261910      1.06e-08  
  815   -2166.9098261910      9.08e-09  Convergence criterion met
 ---------------------------------------
 SCF time:   CPU 27389.07s  wall 2284.00s 
<S^2> =          5.528012004
 SCF   energy in the final basis set =    -2166.9098261910
 Total energy in the final basis set =    -2166.9098261910
 
 --------------------------------------------------------------
 
                    Orbital Energies (a.u.)
 --------------------------------------------------------------
 
 Alpha MOs
 -- Occupied --
******* -30.063 -26.024 -26.009 -25.999 -14.517 -14.513 -14.512
-14.511 -14.423 -14.414 -14.414 -14.413 -10.404 -10.400 -10.398
-10.394 -10.388 -10.381 -10.373 -10.370 -10.353 -10.350 -10.347
-10.347  -3.810  -2.654  -2.623  -2.601  -1.353  -1.352  -1.351
 -1.349  -1.205  -1.204  -1.202  -1.200  -1.081  -1.080  -1.078
 -1.075  -0.972  -0.970  -0.967  -0.965  -0.940  -0.940  -0.937
 -0.935  -0.916  -0.912  -0.911  -0.907  -0.811  -0.807  -0.803
 -0.802  -0.799  -0.797  -0.795  -0.795  -0.790  -0.786  -0.785
 -0.782  -0.757  -0.756  -0.752  -0.750  -0.729  -0.722  -0.718
 -0.709  -0.674  -0.664  -0.657  -0.655  -0.647  -0.630  -0.614
 -0.611  -0.608  -0.605  -0.601  -0.597
 -- Virtual --
 -0.596  -0.585  -0.462  -0.444  -0.438  -0.411  -0.407  -0.401
 -0.397  -0.372  -0.363  -0.362  -0.354  -0.346  -0.344  -0.319
 -0.302  -0.293  -0.284  -0.267  -0.259  -0.253  -0.247  -0.231
 -0.224  -0.218  -0.215  -0.214  -0.213  -0.207  -0.203  -0.198
 -0.197  -0.192  -0.186  -0.184  -0.179  -0.170  -0.151  -0.145
 -0.136  -0.124  -0.112  -0.099  -0.075  -0.072  -0.050  -0.032
 -0.022   0.003   0.011   0.018   0.026   0.030   0.055   0.078
  0.085   0.091   0.107   0.117   0.118   0.125   0.136   0.143
  0.150   0.154   0.162   0.167   0.174   0.179   0.182   0.192
  0.196   0.198   0.203   0.203   0.207   0.211   0.217   0.220
  0.230   0.239   0.249   0.250   0.261   0.281   0.292   0.298
  0.305   0.315   0.322   0.331   0.342   0.346   0.362   0.367
  0.371   0.375   0.380   0.384   0.391   0.393   0.403   0.409
  0.412   0.425   0.428   0.436   0.436   0.452   0.455   0.466
  0.467   0.475   0.482   0.489   0.493   0.511   0.518   0.533
  0.550   0.561   0.576   0.586   0.590   0.621   0.634   0.637
  0.661   0.685   0.730   0.737   0.742   0.751   0.769   0.779
  0.782   0.786   0.793   0.806   0.817   0.826   0.835   0.844
  0.860   0.869   0.877   0.881   0.882   0.885   0.888   0.893
  0.894   0.896   0.929   0.942   0.959   0.977   0.984   0.991
  0.993   0.997   1.003   1.009   1.019   1.029   1.034   1.036
  1.037   1.043   1.054   1.109   1.118   1.123   1.135   1.239
  1.243   1.259   1.268   1.404   1.406   1.407   1.423   1.441
  1.447   1.455   1.458   1.463   1.467   1.468   1.475   1.499
  1.502   1.507   1.515   1.528   1.531   1.536   1.541   1.561
  1.569   1.572   1.584   1.627   1.640   1.641   1.649   1.653
  1.656   1.661   1.664   1.672   1.675   1.681   1.684   1.690
  1.700   1.709   1.721   1.727   1.730   1.738   1.760   1.766
  1.778   1.787   1.797   1.802   1.810   1.816   1.895   1.902
  1.903   1.907   1.909   1.915   1.922   1.929   1.969   1.973
  1.979   1.980   1.983   1.993   1.997   2.010   2.018   2.024
  2.028   2.029   2.040   2.054   2.065   2.070   2.075   2.078
  2.094   2.109   2.114   2.120   2.121   2.124   2.159   2.167
  2.169   2.188   2.201   2.205   2.208   2.210   2.276   2.284
  2.288   2.290   2.292   2.295   2.301   2.306   2.390   2.391
  2.400   2.407   2.451   2.453   2.460   2.464   2.551   2.554
  2.556   2.562   2.696   2.702   2.715   2.734   2.740   2.744
  2.745   2.748   2.824   2.827   2.835   2.842   3.112   3.115
  3.122   3.134   3.281   3.282   3.290   3.297   3.492   3.508
  3.525   3.533   3.605   3.616   3.623   3.636   3.722   3.732
  3.747   3.766   3.908   3.925   3.926   3.939   4.171   4.180
  4.194   4.210  19.736
 
 Beta MOs
 -- Occupied --
******* -30.002 -25.973 -25.964 -25.958 -14.516 -14.512 -14.511
-14.511 -14.422 -14.415 -14.414 -14.412 -10.406 -10.404 -10.397
-10.397 -10.391 -10.385 -10.377 -10.369 -10.354 -10.352 -10.349
-10.346  -3.662  -2.493  -2.482  -2.471  -1.354  -1.354  -1.352
 -1.351  -1.204  -1.203  -1.202  -1.201  -1.088  -1.086  -1.085
 -1.077  -0.973  -0.971  -0.967  -0.966  -0.943  -0.941  -0.940
 -0.937  -0.919  -0.915  -0.913  -0.908  -0.813  -0.808  -0.805
 -0.804  -0.803  -0.799  -0.799  -0.796  -0.795  -0.792  -0.786
 -0.784  -0.757  -0.756  -0.755  -0.751  -0.663  -0.659  -0.657
 -0.651  -0.623  -0.618  -0.615  -0.612  -0.611  -0.610  -0.608
 -0.607  -0.601
 -- Virtual --
 -0.595  -0.583  -0.571  -0.567  -0.555  -0.450  -0.427  -0.426
 -0.421  -0.417  -0.414  -0.402  -0.376  -0.373  -0.366  -0.364
 -0.344  -0.339  -0.316  -0.302  -0.286  -0.279  -0.269  -0.257
 -0.255  -0.248  -0.231  -0.225  -0.221  -0.216  -0.214  -0.211
 -0.207  -0.204  -0.200  -0.198  -0.195  -0.188  -0.184  -0.179
 -0.165  -0.149  -0.140  -0.133  -0.124  -0.107  -0.095  -0.077
 -0.072  -0.044  -0.027  -0.015   0.002   0.008   0.017   0.025
  0.026   0.050   0.071   0.083   0.087   0.101   0.112   0.115
  0.122   0.133   0.136   0.143   0.147   0.162   0.168   0.173
  0.178   0.182   0.188   0.195   0.197   0.199   0.201   0.206
  0.208   0.215   0.220   0.229   0.236   0.248   0.250   0.260
  0.280   0.291   0.295   0.305   0.313   0.324   0.334   0.340
  0.346   0.362   0.366   0.370   0.376   0.379   0.383   0.391
  0.393   0.403   0.409   0.413   0.424   0.430   0.434   0.436
  0.451   0.456   0.466   0.471   0.473   0.481   0.488   0.492
  0.511   0.518   0.532   0.552   0.565   0.576   0.587   0.588
  0.622   0.632   0.644   0.663   0.689   0.729   0.737   0.743
  0.755   0.771   0.773   0.782   0.782   0.793   0.806   0.816
  0.825   0.835   0.845   0.859   0.865   0.870   0.873   0.879
  0.885   0.886   0.887   0.889   0.892   0.980   0.983   0.988
  0.990   0.994   0.998   1.010   1.022   1.027   1.029   1.034
  1.038   1.039   1.041   1.046   1.070   1.077   1.114   1.116
  1.139   1.147   1.241   1.242   1.257   1.269   1.393   1.397
  1.411   1.412   1.439   1.447   1.454   1.455   1.462   1.466
  1.469   1.475   1.498   1.503   1.509   1.514   1.527   1.532
  1.537   1.543   1.556   1.567   1.573   1.582   1.632   1.635
  1.642   1.647   1.661   1.666   1.674   1.682   1.711   1.718
  1.724   1.726   1.732   1.739   1.743   1.746   1.753   1.758
  1.767   1.772   1.777   1.782   1.787   1.793   1.804   1.807
  1.819   1.891   1.899   1.901   1.905   1.909   1.911   1.920
  1.926   1.964   1.970   1.975   1.977   1.979   1.990   1.997
  2.006   2.018   2.024   2.027   2.030   2.037   2.052   2.065
  2.069   2.073   2.076   2.094   2.107   2.110   2.110   2.111
  2.119   2.159   2.167   2.169   2.188   2.198   2.201   2.203
  2.205   2.276   2.280   2.283   2.287   2.291   2.292   2.297
  2.303   2.390   2.391   2.398   2.404   2.451   2.453   2.459
  2.462   2.551   2.553   2.556   2.560   2.697   2.702   2.715
  2.734   2.739   2.743   2.745   2.748   2.824   2.826   2.834
  2.841   3.112   3.114   3.120   3.131   3.279   3.280   3.287
  3.295   3.492   3.508   3.524   3.533   3.601   3.612   3.622
  3.637   3.717   3.724   3.744   3.760   3.901   3.919   3.927
  3.932   4.164   4.174   4.195   4.204  19.854
 --------------------------------------------------------------
 
          Ground-State Mulliken Net Atomic Charges

     Atom                 Charge (a.u.)    Spin (a.u.)
  --------------------------------------------------------
      1 Fe                    0.603841       4.381115
      2 N                    -0.322987      -0.001865
      3 C                     0.194329       0.086970
      4 N                    -0.434664       0.017496
      5 C                     0.097732       0.084142
      6 C                     0.090565       0.064681
      7 H                     0.169008      -0.003388
      8 H                     0.184354      -0.002951
      9 H                     0.190997      -0.004256
     10 H                     0.312407       0.000409
     11 H                     0.204388       0.009908
     12 C                     0.137589      -0.255929
     13 H                     0.217357      -0.007544
     14 N                    -0.413226       0.040357
     15 C                     0.117735      -0.124802
     16 C                     0.274002      -0.189062
     17 H                     0.209012       0.006444
     18 N                    -0.319691       0.026646
     19 H                     0.117889       0.006811
     20 H                     0.159836       0.012325
     21 C                     0.143746      -0.314005
     22 H                     0.282848       0.000743
     23 N                    -0.432573       0.033462
     24 C                     0.137606      -0.153194
     25 C                     0.326377      -0.285721
     26 H                     0.206288       0.006810
     27 N                    -0.286996      -0.022179
     28 H                     0.179310       0.013018
     29 H                     0.103502       0.007683
     30 C                     0.102217      -0.249089
     31 H                     0.238555      -0.008078
     32 N                    -0.422435       0.034252
     33 C                     0.124149      -0.100880
     34 C                     0.339942      -0.219770
     35 H                     0.206904       0.005345
     36 N                    -0.271951       0.094494
     37 H                     0.232037       0.009602
  --------------------------------------------------------
  Sum of atomic charges =     3.000000
  Sum of spin   charges =     3.000000

 -----------------------------------------------------------------
                    Cartesian Multipole Moments
 -----------------------------------------------------------------
    Charge (ESU x 10^10)
                14.4096
    Dipole Moment (Debye)
         X       1.2249      Y      -6.3316      Z      -3.1356
       Tot       7.1708
    Quadrupole Moments (Debye-Ang)
        XX     -27.4269     XY      -7.6495     YY     -69.4847
        XZ      13.9600     YZ       9.1073     ZZ     -87.9162
    Octopole Moments (Debye-Ang^2)
       XXX      41.7954    XXY      11.5968    XYY     -24.4787
       YYY    -100.0046    XXZ      -6.9536    XYZ      15.5552
       YYZ     -24.0798    XZZ      22.0523    YZZ     -25.2195
       ZZZ     -30.5721
    Hexadecapole Moments (Debye-Ang^3)
      XXXX   -2565.5225   XXXY     106.5983   XXYY    -981.3694
      XYYY    -116.2270   YYYY   -2416.1111   XXXZ      -5.6831
      XXYZ      50.6200   XYYZ     112.8636   YYYZ      53.3954
      XXZZ    -842.4832   XYZZ       3.9919   YYZZ    -644.1452
      XZZZ     129.4083   YZZZ      71.2850   ZZZZ   -1338.7488
 -----------------------------------------------------------------
 Calculating analytic gradient of the SCF energy
 Gradient of SCF Energy
            1           2           3           4           5           6
    1   0.0056722   0.0241568   0.0563178  -0.0312513  -0.0574375   0.0009323
    2   0.0056113  -0.0036582  -0.0156338   0.0093551   0.0002300  -0.0034019
    3   0.0007300   0.0108860  -0.0125551   0.0476350  -0.0059922  -0.0141741
            7           8           9          10          11          12
    1  -0.0044433   0.0017808   0.0044558   0.0027199  -0.0002964  -0.0324429
    2   0.0058954   0.0004510   0.0094996   0.0072088   0.0081007   0.0452234
    3   0.0045680  -0.0074860   0.0009516  -0.0194788   0.0004857  -0.0254540
           13          14          15          16          17          18
    1  -0.0107419   0.0172718  -0.0081605   0.0047300  -0.0051580   0.0223081
    2  -0.0143423   0.0450862  -0.0261027  -0.0451696  -0.0052465  -0.0096391
    3   0.0025868  -0.0002122   0.0005227   0.0141028   0.0011522   0.0067810
           19          20          21          22          23          24
    1   0.0030952   0.0032596  -0.0167340  -0.0120505   0.0272901  -0.0157845
    2  -0.0007433   0.0058315   0.0545864  -0.0128610   0.0418856  -0.0328759
    3   0.0082531  -0.0008831  -0.0151363  -0.0105810   0.0120852  -0.0065231
           25          26          27          28          29          30
    1   0.0027563  -0.0050491   0.0053320   0.0056305  -0.0066882  -0.0392189
    2  -0.0503496  -0.0046787  -0.0060836  -0.0025474   0.0040164   0.0022733
    3   0.0060324  -0.0024423   0.0062562  -0.0009420   0.0034003   0.0312928
           31          32          33          34          35          36
    1   0.0069497  -0.0122371   0.0149937   0.0435299   0.0016654  -0.0016823
    2  -0.0149274   0.0430328  -0.0332989  -0.0103747  -0.0071785   0.0066179
    3   0.0002468  -0.0008960  -0.0013787  -0.0289285   0.0002034  -0.0030432
           37
    1   0.0045286
    2   0.0042081
    3  -0.0020657
 Max gradient component =       5.744E-02
 RMS gradient           =       1.948E-02
 Gradient time:  CPU 60.81 s  wall 5.40 s
 Geometry Optimization Parameters
   NAtoms,    NIC,     NZ,  NCons,   NDum,   NFix, NCnnct, MaxDiis
       37     310       0       0       0       0       0       0


** GEOMETRY OPTIMIZATION IN DELOCALIZED INTERNAL COORDINATES **
   Searching for a Minimum

   Optimization Cycle:   1

                       Coordinates (Angstroms)
     ATOM                X               Y               Z
      1  Fe       -0.7006322446   -1.1634826247   -1.7367805958
      2  N        -1.2285858140   -2.5064131631    1.9992384312
      3  C        -1.2244508796   -2.9988275914    0.7441081837
      4  N         0.0221950177   -3.1767360288    0.2716828604
      5  C         0.8448148131   -2.7850237833    1.2564917760
      6  C         0.0733672440   -2.3734288740    2.3202050744
      7  H         1.9254930733   -2.7977837283    1.2036773278
      8  H         0.4352878522   -1.9986750158    3.2681007618
      9  H        -2.1213205503   -3.2243957620    0.1826135313
     10  H         0.2935294347   -3.5433906851   -0.6672265424
     11  H         4.1575819238   -1.2384028167   -0.4063765535
     12  C         3.5598355962   -0.4426757092   -0.8306700554
     13  H         1.7938146865   -1.4858799274   -1.4376297754
     14  N         2.3363080533   -0.5981815728   -1.3586168034
     15  C         3.9020480060    0.8875096091   -0.9279580285
     16  C         1.9545912844    0.6259556360   -1.7646311870
     17  H         4.8258409384    1.3386307462   -0.5918708987
     18  N         2.8931940921    1.5612056120   -1.5149932921
     19  H         1.0044852797    0.8374011139   -2.2365997543
     20  H         2.0424080614   -0.1037649952    2.0954269770
     21  C         1.6509764850    0.8720005159    1.8426087561
     22  H        -0.3072361208    0.4007868073    1.1174712532
     23  N         0.4303264142    1.1060931297    1.3368021806
     24  C         2.2997108352    2.0789684675    1.9733600160
     25  C         0.3543972015    2.4385546898    1.1697718119
     26  H         3.3019709066    2.2308773840    2.3504501426
     27  N         1.4855698121    3.0656652144    1.5505017666
     28  H        -0.5125177911    2.9505037537    0.7755868441
     29  H        -1.5737242127    1.2855832919   -1.5941877701
     30  C        -2.4497513055    1.3683947065   -0.9649528141
     31  H        -2.8369577697   -0.6752838372   -0.4610687680
     32  N        -3.0846810908    0.3358416650   -0.3895827823
     33  C        -3.1063348925    2.5257259476   -0.6110191821
     34  C        -4.1074487223    0.8732817748    0.2988658405
     35  H        -2.8421417159    3.5307142191   -0.9114121922
     36  N        -4.1493044125    2.2161289703    0.1841463898
     37  H        -4.8157641357    0.2957885722    0.8780085029
   Point Group: c1    Number of degrees of freedom:   105


   Energy is  -2166.909826191


 Attempting to Generate Delocalized Internal Coordinates

105 Hessian modes will be used to form the next step
  Hessian Eigenvalues:
     0.002000    0.002203    0.002245    0.004396    0.005903    0.006754
     0.007841    0.008370    0.010795    0.011700    0.012313    0.012815
     0.013610    0.014361    0.016107    0.016946    0.017559    0.018569
     0.018684    0.019247    0.019726    0.020941    0.022754    0.022775
     0.022818    0.023135    0.023272    0.023725    0.023789    0.024110
     0.024148    0.024454    0.024553    0.024671    0.024672    0.024735
     0.026012    0.030605    0.034421    0.041165    0.048097    0.048867
     0.063867    0.083808    0.089836    0.099992    0.121334    0.132022
     0.149064    0.159999    0.160000    0.160000    0.160000    0.160000
     0.160000    0.160000    0.160000    0.160000    0.160000    0.160000
     0.160000    0.211659    0.213206    0.217412    0.220000    0.225201
     0.226484    0.226929    0.229008    0.299730    0.325095    0.334943
     0.343138    0.357486    0.357598    0.357658    0.357919    0.357976
     0.358017    0.358050    0.358352    0.358485    0.373287    0.388891
     0.407449    0.430393    0.435479    0.443315    0.446357    0.464419
     0.482184    0.486749    0.494167    0.512687    0.521770    0.526756
     0.529349    0.538073    0.546600    0.548920    0.557826    0.557976
     0.562797    0.562917    0.562992

 Minimum Search - Taking Simple RFO Step
 Searching for Lamda that Minimizes Along All modes
 Value Taken    Lamda =  -0.13341297
 Calculated Step too Large.  Step scaled by  0.400925
 Step Taken.  Stepsize is  0.300000

                             Maximum     Tolerance    Cnvgd?
         Gradient           0.130948      0.000300      NO
         Displacement       0.248766      0.001200      NO
         Energy change     *********      0.000001      NO


 New Cartesian Coordinates Obtained by Inverse Iteration

 Displacement from previous Coordinates is:  6.754138
 ----------------------------------------------------------------
             Standard Nuclear Orientation (Angstroms)
    I     Atom           X                Y                Z
 ----------------------------------------------------------------
    1      Fe     -0.8289155656    -1.3776218066    -1.9028376847
    2      N      -1.2300009561    -2.4388941885     2.0180186130
    3      C      -1.2370916438    -2.9773054680     0.7829502647
    4      N       0.0256337831    -3.1853307728     0.3171228914
    5      C       0.8665358861    -2.7703716176     1.2943649144
    6      C       0.0809495657    -2.3252709850     2.3521516883
    7      H       1.9481857513    -2.8248748734     1.2462339632
    8      H       0.4262864931    -1.9790903544     3.3269378443
    9      H      -2.1395176647    -3.2436470370     0.2399929273
   10      H       0.2804744327    -3.6069332485    -0.5976304357
   11      H       4.0910026528    -1.1806402430    -0.7104663152
   12      C       3.4555546280    -0.4526121302    -1.2026363097
   13      H       1.6959378666    -1.6000373278    -1.6342974720
   14      N       2.2126525732    -0.6993238085    -1.6738156051
   15      C       3.7385347736     0.8832077262    -1.4753195441
   16      C       1.7732357004     0.4680331130    -2.2149644581
   17      H       4.6549563599     1.4093726361    -1.2324181613
   18      N       2.6830581446     1.4529737792    -2.1046856646
   19      H       0.8027176572     0.5955491629    -2.6827330152
   20      H       2.2105265142    -0.0353069479     2.5455375573
   21      C       1.9223422766     1.0073741530     2.4778011249
   22      H      -0.0776676904     0.9028944851     1.7268157296
   23      N       0.7285934252     1.4691891398     2.0476893106
   24      C       2.6949822880     2.1155367281     2.8195928293
   25      C       0.7940451673     2.8248456422     2.1323543679
   26      H       3.7090040206     2.1009981526     3.2031712882
   27      N       1.9869614800     3.2447701008     2.5971098656
   28      H      -0.0174529218     3.4903817357     1.8629627518
   29      H      -1.7764914427     1.0465319694    -2.0290033511
   30      C      -2.6460611312     1.1814561226    -1.3914911854
   31      H      -2.9577982555    -0.7994336179    -0.6375845699
   32      N      -3.2414495617     0.1995334620    -0.6747209493
   33      C      -3.3516367472     2.3566651427    -1.1545656719
   34      C      -4.2823115123     0.7794201689    -0.0225963801
   35      H      -3.1414009034     3.3347605469    -1.5729753269
   36      N      -4.3661385757     2.0971615879    -0.2990456886
   37      H      -4.9613415147     0.2493045840     0.6365212895
 ----------------------------------------------------------------
 Molecular Point Group                 C1    NOp =  1
 Largest Abelian Subgroup              C1    NOp =  1
 Nuclear Repulsion Energy =  1864.2518274425 hartrees
 There are       85 alpha and       82 beta electrons
 Applying Cartesian multipole field
    Component          Value
    ---------          -----
     (2,0,0)        1.00000E-11
     (0,2,0)        2.00000E-11
     (0,0,2)       -3.00000E-11
 Nucleus-field energy     =     0.0000000214 hartrees
 Requested basis set is 6-31G(d,p)
 There are 136 shells and 416 basis functions
 A cutoff of  1.0D-11 yielded   5269 shell pairs
 There are     49585 function pairs (     50365 Cartesian)
 Smallest overlap matrix eigenvalue = 1.68E-03
 Guess MOs from SCF MO coefficient file

 -----------------------------------------------------------------------
  General SCF calculation program by
  Eric Jon Sundstrom, Paul Horn, Yuezhi Mao, Dmitri Zuev, Alec White,
  David Stuck, Shaama M.S., Shane Yost, Joonho Lee, David Small,
  Daniel Levine, Susi Lehtola, Hugh Burton, Evgeny Epifanovsky
 -----------------------------------------------------------------------
 Exchange:  B88      Correlation:  LYP
 Using SG-1 standard quadrature grid
 using 12 threads for integral computing
 -------------------------------------------------------
 OpenMP Integral computing Module                
 Release: version 1.0, May 2013, Q-Chem Inc. Pittsburgh 
 -------------------------------------------------------
 -------------------------------------------------------
 OpenMP BLAS3 based DFT computing Module                
 Release: version 1.0, May 2013, Q-Chem Inc. Pittsburgh 
 -------------------------------------------------------
 A unrestricted SCF calculation will be
 performed using DIIS
 SCF converges when DIIS error is below 1.0e-08
 ---------------------------------------
  Cycle       Energy         DIIS error
 ---------------------------------------
    1   -2166.8158440230      9.08e-04  
    2   -2166.8830811729      5.38e-04  
    3   -2163.8727383190      4.15e-03  
    4   -2166.1503251367      2.54e-03  
    5   -2166.6193395336      1.46e-03  
    6   -2166.7627419014      9.45e-04  
    7   -2166.7576365275      9.11e-04  
    8   -2166.4356506037      1.81e-03  
    9   -2166.8569302062      7.89e-04  
   10   -2166.8968991117      6.05e-04  
   11   -2166.8011767214      9.54e-04  
   12   -2166.8254703794      7.92e-04  
   13   -2166.9071342197      4.59e-04  
   14   -2166.9060155013      4.15e-04  
   15   -2166.9135775369      3.66e-04  
   16   -2166.9230970771      3.32e-04  
   17   -2166.9123688032      3.85e-04  
   18   -2166.9229023211      3.32e-04  
   19   -2166.9034298068      4.22e-04  
   20   -2166.9375569934      2.28e-04  
   21   -2166.9480576444      6.48e-05  
   22   -2166.9423378603      1.67e-04  
   23   -2166.9380346883      2.22e-04  
   24   -2166.9407141692      1.91e-04  
   25   -2166.9485231806      4.15e-05  
   26   -2166.9487332097      2.75e-05  
   27   -2166.9488116509      1.95e-05  
   28   -2166.9487850462      2.20e-05  
   29   -2166.9488685689      1.07e-05  
   30   -2166.9488884789      5.51e-06  
   31   -2166.9488858658      6.62e-06  
   32   -2166.9488935099      3.39e-06  
   33   -2166.9488956555      1.79e-06  
   34   -2166.9488935233      3.94e-06  
   35   -2166.9488956788      3.30e-06  
   36   -2166.9488978332      1.94e-06  
   37   -2166.9488967110      3.19e-06  
   38   -2166.9488926183      5.58e-06  
   39   -2166.9488964963      4.05e-06  
   40   -2166.9489005613      1.29e-06  
   41   -2166.9489001825      2.90e-06  
   42   -2166.9489012875      1.99e-06  
   43   -2166.9489011875      2.45e-06  
   44   -2166.9489024415      5.60e-07  
   45   -2166.9489026180      8.51e-07  
   46   -2166.9489027822      2.19e-07  
   47   -2166.9489027873      2.17e-07  
   48   -2166.9489027911      1.75e-07  
   49   -2166.9489027948      1.04e-07  
   50   -2166.9489027965      5.60e-08  
   51   -2166.9489027956      9.20e-08  
   52   -2166.9489027967      2.45e-08  
   53   -2166.9489027968      1.41e-08  
   54   -2166.9489027966      2.95e-08  
   55   -2166.9489027969      1.24e-08  
   56   -2166.9489027968      2.97e-08  
   57   -2166.9489027969      1.75e-08  
   58   -2166.9489027969      1.98e-08  
   59   -2166.9489027970      5.67e-09  Convergence criterion met
 ---------------------------------------
 SCF time:   CPU 1723.95s  wall 144.00s 
<S^2> =          5.624404200
 SCF   energy in the final basis set =    -2166.9489027970
 Total energy in the final basis set =    -2166.9489027970
 
 --------------------------------------------------------------
 
                    Orbital Energies (a.u.)
 --------------------------------------------------------------
 
 Alpha MOs
 -- Occupied --
******* -30.047 -26.008 -25.992 -25.982 -14.498 -14.497 -14.494
-14.494 -14.406 -14.398 -14.398 -14.397 -10.389 -10.388 -10.381
-10.380 -10.377 -10.373 -10.361 -10.355 -10.342 -10.339 -10.334
-10.334  -3.793  -2.637  -2.606  -2.583  -1.329  -1.328  -1.327
 -1.326  -1.185  -1.184  -1.183  -1.182  -1.061  -1.060  -1.060
 -1.059  -0.953  -0.951  -0.947  -0.946  -0.921  -0.920  -0.919
 -0.918  -0.898  -0.894  -0.894  -0.891  -0.789  -0.786  -0.785
 -0.782  -0.781  -0.778  -0.777  -0.776  -0.773  -0.772  -0.769
 -0.768  -0.741  -0.740  -0.737  -0.736  -0.712  -0.704  -0.701
 -0.691  -0.657  -0.644  -0.637  -0.636  -0.635  -0.613  -0.597
 -0.595  -0.593  -0.589  -0.582  -0.578
 -- Virtual --
 -0.578  -0.574  -0.444  -0.429  -0.422  -0.396  -0.392  -0.387
 -0.385  -0.359  -0.349  -0.346  -0.343  -0.341  -0.331  -0.304
 -0.291  -0.277  -0.268  -0.253  -0.245  -0.242  -0.233  -0.231
 -0.214  -0.211  -0.203  -0.201  -0.201  -0.197  -0.193  -0.189
 -0.185  -0.183  -0.179  -0.177  -0.169  -0.159  -0.138  -0.131
 -0.126  -0.111  -0.104  -0.086  -0.070  -0.059  -0.047  -0.025
 -0.011   0.015   0.026   0.031   0.037   0.071   0.088   0.094
  0.112   0.121   0.122   0.130   0.130   0.141   0.148   0.155
  0.161   0.167   0.170   0.175   0.184   0.187   0.188   0.198
  0.207   0.208   0.211   0.213   0.215   0.217   0.221   0.224
  0.227   0.235   0.237   0.241   0.244   0.259   0.265   0.278
  0.295   0.305   0.320   0.326   0.338   0.347   0.360   0.377
  0.383   0.386   0.389   0.392   0.395   0.406   0.413   0.416
  0.419   0.422   0.428   0.432   0.437   0.447   0.454   0.462
  0.466   0.475   0.484   0.487   0.488   0.505   0.506   0.526
  0.553   0.568   0.572   0.579   0.584   0.596   0.603   0.632
  0.641   0.672   0.721   0.727   0.736   0.750   0.781   0.785
  0.798   0.800   0.803   0.809   0.813   0.832   0.839   0.858
  0.859   0.862   0.892   0.892   0.893   0.900   0.904   0.906
  0.907   0.908   0.940   0.953   0.965   0.982   0.994   1.005
  1.006   1.007   1.010   1.012   1.013   1.024   1.041   1.048
  1.049   1.051   1.053   1.099   1.110   1.121   1.128   1.257
  1.262   1.267   1.278   1.405   1.408   1.410   1.410   1.446
  1.448   1.454   1.459   1.466   1.466   1.467   1.475   1.501
  1.503   1.510   1.513   1.537   1.540   1.547   1.551   1.563
  1.566   1.574   1.582   1.633   1.644   1.649   1.650   1.663
  1.666   1.667   1.673   1.675   1.680   1.687   1.692   1.698
  1.712   1.722   1.733   1.734   1.735   1.740   1.764   1.767
  1.772   1.777   1.798   1.800   1.804   1.807   1.912   1.919
  1.920   1.921   1.922   1.926   1.931   1.933   1.981   1.982
  1.988   1.992   1.996   1.999   2.001   2.004   2.016   2.021
  2.030   2.036   2.038   2.040   2.050   2.071   2.072   2.082
  2.087   2.097   2.111   2.123   2.124   2.126   2.166   2.168
  2.177   2.184   2.205   2.211   2.216   2.218   2.283   2.285
  2.288   2.295   2.298   2.299   2.303   2.304   2.391   2.395
  2.396   2.399   2.450   2.457   2.461   2.463   2.547   2.553
  2.554   2.556   2.705   2.716   2.720   2.731   2.745   2.746
  2.748   2.749   2.822   2.827   2.833   2.838   3.107   3.117
  3.121   3.129   3.273   3.278   3.281   3.288   3.501   3.503
  3.510   3.531   3.602   3.606   3.613   3.619   3.709   3.713
  3.725   3.734   3.921   3.922   3.932   3.938   4.179   4.182
  4.188   4.195  19.711
 
 Beta MOs
 -- Occupied --
******* -29.985 -25.956 -25.947 -25.940 -14.497 -14.496 -14.494
-14.494 -14.404 -14.398 -14.397 -14.396 -10.393 -10.392 -10.383
-10.382 -10.379 -10.377 -10.364 -10.354 -10.344 -10.341 -10.335
-10.333  -3.644  -2.475  -2.464  -2.453  -1.333  -1.330  -1.330
 -1.324  -1.185  -1.184  -1.184  -1.180  -1.072  -1.067  -1.067
 -1.056  -0.954  -0.951  -0.949  -0.946  -0.924  -0.923  -0.922
 -0.917  -0.900  -0.898  -0.897  -0.889  -0.790  -0.788  -0.785
 -0.784  -0.783  -0.782  -0.782  -0.781  -0.780  -0.777  -0.771
 -0.767  -0.741  -0.740  -0.739  -0.737  -0.642  -0.639  -0.639
 -0.638  -0.609  -0.600  -0.599  -0.597  -0.594  -0.593  -0.591
 -0.588  -0.583
 -- Virtual --
 -0.576  -0.565  -0.552  -0.549  -0.536  -0.432  -0.413  -0.410
 -0.409  -0.403  -0.402  -0.387  -0.362  -0.357  -0.356  -0.352
 -0.338  -0.327  -0.302  -0.292  -0.270  -0.264  -0.254  -0.243
 -0.242  -0.234  -0.231  -0.214  -0.212  -0.203  -0.202  -0.200
 -0.196  -0.194  -0.190  -0.188  -0.186  -0.181  -0.176  -0.170
 -0.156  -0.134  -0.123  -0.119  -0.115  -0.095  -0.082  -0.067
 -0.062  -0.039  -0.019  -0.003   0.013   0.023   0.029   0.037
  0.061   0.082   0.093   0.105   0.115   0.117   0.123   0.130
  0.132   0.144   0.151   0.156   0.159   0.166   0.174   0.179
  0.183   0.188   0.192   0.202   0.205   0.207   0.212   0.214
  0.215   0.216   0.222   0.224   0.233   0.236   0.240   0.244
  0.259   0.267   0.277   0.295   0.308   0.320   0.327   0.341
  0.349   0.361   0.377   0.383   0.385   0.388   0.392   0.394
  0.408   0.413   0.417   0.418   0.423   0.429   0.432   0.438
  0.447   0.454   0.465   0.467   0.471   0.482   0.485   0.489
  0.502   0.504   0.527   0.555   0.570   0.575   0.579   0.588
  0.597   0.602   0.631   0.642   0.684   0.721   0.726   0.736
  0.753   0.781   0.787   0.788   0.794   0.799   0.806   0.818
  0.832   0.841   0.855   0.858   0.864   0.878   0.884   0.886
  0.894   0.897   0.899   0.907   0.909   0.988   0.995   0.998
  0.999   1.002   1.007   1.009   1.012   1.032   1.042   1.042
  1.044   1.049   1.051   1.056   1.082   1.085   1.096   1.114
  1.136   1.151   1.255   1.263   1.266   1.280   1.391   1.399
  1.401   1.413   1.444   1.448   1.454   1.456   1.463   1.464
  1.465   1.477   1.499   1.505   1.512   1.515   1.536   1.540
  1.549   1.552   1.558   1.560   1.570   1.586   1.638   1.640
  1.644   1.645   1.659   1.661   1.670   1.680   1.722   1.727
  1.729   1.734   1.741   1.746   1.747   1.755   1.762   1.768
  1.773   1.782   1.788   1.789   1.793   1.794   1.797   1.799
  1.822   1.908   1.915   1.918   1.918   1.920   1.925   1.928
  1.933   1.975   1.981   1.987   1.988   1.990   1.992   1.998
  2.002   2.015   2.020   2.028   2.034   2.037   2.042   2.049
  2.070   2.073   2.080   2.088   2.099   2.110   2.113   2.114
  2.117   2.166   2.168   2.177   2.185   2.205   2.207   2.209
  2.213   2.281   2.283   2.286   2.291   2.293   2.295   2.301
  2.302   2.391   2.394   2.394   2.398   2.450   2.458   2.459
  2.463   2.548   2.553   2.553   2.555   2.705   2.715   2.721
  2.731   2.744   2.745   2.746   2.749   2.822   2.826   2.832
  2.838   3.108   3.116   3.118   3.127   3.270   3.276   3.279
  3.288   3.501   3.504   3.510   3.531   3.598   3.604   3.610
  3.621   3.698   3.706   3.718   3.737   3.910   3.916   3.926
  3.941   4.172   4.173   4.182   4.197  19.829
 --------------------------------------------------------------
 
          Ground-State Mulliken Net Atomic Charges

     Atom                 Charge (a.u.)    Spin (a.u.)
  --------------------------------------------------------
      1 Fe                    0.583564       4.437188
      2 N                    -0.330484      -0.008608
      3 C                     0.201088       0.106611
      4 N                    -0.444396       0.019753
      5 C                     0.101023       0.097912
      6 C                     0.071949       0.088042
      7 H                     0.168009      -0.003991
      8 H                     0.173840      -0.003982
      9 H                     0.184636      -0.005246
     10 H                     0.303074       0.000496
     11 H                     0.197152       0.009414
     12 C                     0.137301      -0.243763
     13 H                     0.219195      -0.007026
     14 N                    -0.421507       0.039566
     15 C                     0.115700      -0.127837
     16 C                     0.281850      -0.198730
     17 H                     0.201900       0.006586
     18 N                    -0.321306       0.035230
[...]
     34  C        -4.3202118135    0.7607664436   -0.0929351651
     35  H        -3.1893332477    3.2880000600   -1.7232345172
     36  N        -4.3907800900    2.0689010616   -0.4086813748
     37  H        -4.9971162026    0.2475312914    0.5870595126
   Point Group: c1    Number of degrees of freedom:   105


   Energy is  -2166.975403055

 Hessian Updated using BFGS Update

103 Hessian modes will be used to form the next step
  Hessian Eigenvalues:
     0.002099    0.002273    0.002392    0.004395    0.005914    0.006784
     0.007895    0.008370    0.010738    0.011701    0.012364    0.012870
     0.013698    0.015475    0.016723    0.017063    0.017737    0.018600
     0.018753    0.019273    0.020070    0.020910    0.022744    0.022778
     0.022819    0.023160    0.023266    0.023770    0.024112    0.024139
     0.024424    0.024498    0.024596    0.024673    0.024722    0.025787
     0.030464    0.032771    0.034409    0.041271    0.048197    0.053645
     0.063910    0.088508    0.090263    0.104003    0.122281    0.126732
     0.132309    0.149431    0.159999    0.160000    0.160000    0.160000
     0.160000    0.160000    0.160000    0.161238    0.169263    0.212704
     0.213613    0.219287    0.222373    0.226191    0.227589    0.231805
     0.239686    0.301426    0.325380    0.335326    0.343253    0.357423
     0.357606    0.357637    0.357912    0.358014    0.358081    0.358446
     0.359771    0.362428    0.373462    0.390398    0.408972    0.430968
     0.437041    0.443845    0.445069    0.460154    0.477805    0.485325
     0.492537    0.515602    0.522795    0.529267    0.532178    0.541082
     0.545129    0.549773    0.556442    0.559040    0.562682    0.571784
     0.616490

 Minimum Search - Taking Simple RFO Step
 Searching for Lamda that Minimizes Along All modes
 Value Taken    Lamda =  -0.04934550
 Calculated Step too Large.  Step scaled by  0.428390
 Step Taken.  Stepsize is  0.300000

                             Maximum     Tolerance    Cnvgd?
         Gradient           0.065678      0.000300      NO
         Displacement       0.196496      0.001200      NO
         Energy change     -0.026500      0.000001      NO


 New Cartesian Coordinates Obtained by Inverse Iteration

 Displacement from previous Coordinates is:  5.391250
 ----------------------------------------------------------------
             Standard Nuclear Orientation (Angstroms)
    I     Atom           X                Y                Z
 ----------------------------------------------------------------
    1      Fe     -0.9444162933    -1.6672886227    -2.0812885819
    2      N      -1.1653563987    -2.2602209582     1.8985944747
    3      C      -1.2173601543    -2.9166035468     0.7361974014
    4      N       0.0614805282    -3.2197283904     0.2629354883
    5      C       0.9556576116    -2.7229976799     1.1790997216
    6      C       0.1699252454    -2.1512332360     2.1973798952
    7      H       2.0315192000    -2.8557415754     1.1046576027
    8      H       0.5171666808    -1.7648520386     3.1622005094
    9      H      -2.1420981346    -3.2406850125     0.2615321455
   10      H       0.2773025511    -3.7637276018    -0.5772615412
   11      H       4.1354409236    -1.4994653974    -1.3311829223
   12      C       3.4720706664    -0.7892604933    -1.8187562199
   13      H       1.6438470288    -1.9157150455    -1.9627158281
   14      N       2.1644879422    -1.0473901692    -2.1368750406
   15      C       3.7163851010     0.5351822588    -2.2694546786
   16      C       1.6756803705     0.0935499428    -2.7669571172
   17      H       4.6528252691     1.0861710655    -2.1979172549
   18      N       2.5929444315     1.0633922608    -2.8344475523
   19      H       0.6655427264     0.1811794308    -3.1772892079
   20      H       2.2266711574     0.4335791694     2.9126730590
   21      C       1.9918489128     1.4629697848     3.2094877852
   22      H      -0.0995587645     1.6493390517     2.8189270056
   23      N       0.7736733929     2.0644821850     3.1497170404
   24      C       2.8830957867     2.4552050607     3.7722509334
   25      C       0.9442592240     3.3544798679     3.6543924723
   26      H       3.9461225337     2.3303425097     3.9789983438
   27      N       2.2211526248     3.5979923683     4.0335178482
   28      H       0.1310261946     4.0769490658     3.7330407198
   29      H      -1.9007020128     0.7437263774    -2.4482306090
   30      C      -2.7556300159     0.9686814532    -1.8025046124
   31      H      -3.0364703011    -0.9056432606    -0.8121026306
   32      N      -3.3350533978     0.0693611493    -0.9441378104
   33      C      -3.4932644460     2.1747329603    -1.6610901324
   34      C      -4.3853773989     0.7244808977    -0.3172005622
   35      H      -3.3294255502     3.1150693986    -2.1837230183
   36      N      -4.4775396148     1.9938234758    -0.7457491914
   37      H      -5.0409782673     0.2591290061     0.4168234972
 ----------------------------------------------------------------
 Molecular Point Group                 C1    NOp =  1
 Largest Abelian Subgroup              C1    NOp =  1
 Nuclear Repulsion Energy =  1765.7313680302 hartrees
 There are       85 alpha and       82 beta electrons
 Applying Cartesian multipole field
    Component          Value
    ---------          -----
     (2,0,0)        1.00000E-11
     (0,2,0)        2.00000E-11
     (0,0,2)       -3.00000E-11
 Nucleus-field energy     =    -0.0000000118 hartrees
 Requested basis set is 6-31G(d,p)
 There are 136 shells and 416 basis functions
 A cutoff of  1.0D-11 yielded   4640 shell pairs
 There are     43682 function pairs (     44420 Cartesian)
 Smallest overlap matrix eigenvalue = 1.76E-03
 Guess MOs from SCF MO coefficient file

 -----------------------------------------------------------------------
  General SCF calculation program by
  Eric Jon Sundstrom, Paul Horn, Yuezhi Mao, Dmitri Zuev, Alec White,
  David Stuck, Shaama M.S., Shane Yost, Joonho Lee, David Small,
  Daniel Levine, Susi Lehtola, Hugh Burton, Evgeny Epifanovsky
 -----------------------------------------------------------------------
 Exchange:  B88      Correlation:  LYP
 Using SG-1 standard quadrature grid
 using 12 threads for integral computing
 -------------------------------------------------------
 OpenMP Integral computing Module                
 Release: version 1.0, May 2013, Q-Chem Inc. Pittsburgh 
 -------------------------------------------------------
 -------------------------------------------------------
 OpenMP BLAS3 based DFT computing Module                
 Release: version 1.0, May 2013, Q-Chem Inc. Pittsburgh 
 -------------------------------------------------------
 A unrestricted SCF calculation will be
 performed using DIIS
 SCF converges when DIIS error is below 1.0e-08
 ---------------------------------------
  Cycle       Energy         DIIS error
 ---------------------------------------
    1   -2166.8902376881      7.43e-04  
    2   -2166.9587735300      4.00e-04  
    3   -2161.4236314752      6.17e-03  
    4   -2165.8161948157      2.43e-03  
    5   -2166.7766443960      1.11e-03  
    6   -2166.7009297379      1.07e-03  
    7   -2166.8986698502      6.98e-04  
    8   -2166.8108099384      7.86e-04  
    9   -2166.9805438559      2.79e-04  
   10   -2166.9754244900      3.12e-04  
   11   -2166.9443403879      4.46e-04  
   12   -2166.9228501724      5.49e-04  
   13   -2166.9339139863      4.88e-04  
   14   -2166.9334243323      4.90e-04  
   15   -2166.9334492867      4.95e-04  
   16   -2166.9333809533      4.95e-04  
   17   -2166.9343974140      4.90e-04  
   18   -2166.8377527351      7.00e-04  
   19   -2166.9427038773      4.40e-04  
   20   -2166.9412949939      4.45e-04  
   21   -2166.9414100354      4.44e-04  
   22   -2166.9406129484      4.48e-04  
   23   -2166.9424730487      4.37e-04  
   24   -2166.9552160489      4.00e-04  
   25   -2166.9411744171      4.46e-04  
   26   -2166.9404678470      4.42e-04  
   27   -2161.0782346075      5.74e-03  
   28   -2161.4003569701      5.45e-03  
   29   -2161.2354926430      5.60e-03  
   30   -2163.8754353482      3.86e-03  
   31   -2163.9450799996      3.79e-03  
   32   -2163.9531958252      3.79e-03  
   33   -2165.0609875628      3.43e-03  
   34   -2164.5942870121      3.75e-03  
   35   -2166.1089773502      2.12e-03  
   36   -2166.4447884923      1.69e-03  
   37   -2166.9068913532      6.66e-04  
   38   -2166.8198844762      7.54e-04  
   39   -2166.9238391590      5.06e-04  
   40   -2166.9498174187      4.18e-04  
   41   -2166.9565643341      3.89e-04  
   42   -2166.9458956541      4.29e-04  
   43   -2166.9847609872      2.08e-04  
   44   -2166.9758566206      3.22e-04  
   45   -2166.9910189335      1.13e-04  
   46   -2166.9908808699      1.15e-04  
   47   -2166.9855761354      1.92e-04  
   48   -2166.8404056641      6.80e-04  
   49   -2166.8422891833      6.71e-04  
   50   -2166.8433659262      6.66e-04  
   51   -2166.8433645775      6.66e-04  
   52   -2166.8456418372      6.61e-04  
   53   -2166.8433221172      6.67e-04  
   54   -2166.8433091530      6.66e-04  
   55   -2166.9711189075      3.09e-04  
   56   -2166.9708507225      3.11e-04  
   57   -2166.9695311179      3.18e-04  
   58   -2166.9865040719      1.80e-04  
   59   -2166.9790005867      2.52e-04  
   60   -2166.8433579533      6.68e-04  
   61   -2166.8392616024      6.87e-04  
   62   -2166.8379353792      6.98e-04  
   63   -2166.8332283006      7.21e-04  
   64   -2166.8340825841      7.16e-04  
   65   -2166.8347082559      7.13e-04  
   66   -2166.8390315929      6.87e-04  
   67   -2166.8415439201      6.76e-04  
   68   -2166.8399289264      6.84e-04  
   69   -2166.8409609668      6.78e-04  
   70   -2166.8420035318      6.72e-04  
   71   -2166.9572723991      3.80e-04  
   72   -2166.9571320941      3.81e-04  
   73   -2166.9552835074      3.88e-04  
   74   -2166.9258645970      5.31e-04  
   75   -2165.5410264361      2.49e-03  
   76   -2166.4625001484      1.75e-03  
   77   -2166.4514677217      1.76e-03  
   78   -2166.4449380577      1.76e-03  
   79   -2166.4760390688      1.74e-03  
   80   -2166.9433678074      4.49e-04  
   81   -2166.9346345225      4.75e-04  
   82   -2166.9389563686      4.54e-04  
   83   -2166.9252290312      5.46e-04  
   84   -2165.6152676171      2.45e-03  
   85   -2165.5958926236      2.44e-03  
   86   -2166.8165531765      8.14e-04  
   87   -2166.9523707186      4.13e-04  
   88   -2166.9776891103      2.69e-04  
   89   -2166.9578778723      3.96e-04  
   90   -2166.6612102638      1.44e-03  
   91   -2166.7914482486      9.51e-04  
   92   -2166.8571633363      8.68e-04  
   93   -2166.8335643309      7.23e-04  
   94   -2166.9265719337      5.14e-04  
   95   -2166.8379016659      6.82e-04  
   96   -2166.9372138154      4.58e-04  
   97   -2166.8373078251      6.94e-04  
   98   -2166.8344341867      7.08e-04  
   99   -2166.8339903750      7.12e-04  
  100   -2166.8343118930      7.13e-04  
  101   -2166.8329617704      7.20e-04  
  102   -2166.8328039004      7.21e-04  
  103   -2166.9376740951      4.63e-04  
  104   -2166.9327650322      4.73e-04  
  105   -2165.5933505136      2.47e-03  
  106   -2165.5909976238      2.47e-03  
  107   -2165.6085535488      2.48e-03  
  108   -2165.5763262675      2.47e-03  
  109   -2166.4823630706      1.77e-03  
  110   -2161.2092172105      5.62e-03  
  111   -2163.8306634312      3.90e-03  
  112   -2163.7568925924      3.99e-03  
  113   -2165.0487648575      3.73e-03  
  114   -2166.8234265236      9.81e-04  
  115   -2166.9125399023      6.23e-04  
  116   -2166.9204300639      5.37e-04  
  117   -2166.9639613269      3.61e-04  
  118   -2166.7013742988      1.24e-03  
  119   -2166.8385402751      6.98e-04  
  120   -2166.3862204652      1.84e-03  
  121   -2166.8086402004      9.71e-04  
  122   -2166.8891826702      6.58e-04  
  123   -2166.9236286655      5.18e-04  
  124   -2166.9321561440      4.84e-04  
  125   -2166.9362428957      4.62e-04  
  126   -2166.9448388657      4.31e-04  
  127   -2166.9386546883      4.59e-04  
  128   -2166.8327911587      7.05e-04  
  129   -2166.8336032096      7.02e-04  
  130   -2166.8400749002      6.79e-04  
  131   -2166.9335827076      4.69e-04  
  132   -2166.9345192180      4.67e-04  
  133   -2166.9871733145      1.78e-04  
  134   -2166.9505252350      4.11e-04  
  135   -2166.8547198995      6.48e-04  
  136   -2166.8447081578      6.64e-04  
  137   -2166.8438512636      6.72e-04  
  138   -2166.8416593067      6.75e-04  
  139   -2166.9508313578      4.16e-04  
  140   -2166.8430154401      6.74e-04  
  141   -2166.9409647860      4.44e-04  
  142   -2166.8538738314      6.62e-04  
  143   -2166.9203688974      5.47e-04  
  144   -2166.9435373197      4.36e-04  
  145   -2166.8465971355      6.69e-04  
  146   -2166.9447039544      4.33e-04  
  147   -2166.8521188680      6.64e-04  
  148   -2166.8745261527      6.33e-04  
  149   -2166.8385009713      6.84e-04  
  150   -2166.8372226437      6.89e-04  
  151   -2166.8381592736      6.86e-04  
  152   -2166.8402804440      6.81e-04  
  153   -2166.8399529867      6.79e-04  
  154   -2166.8383861096      6.87e-04  
  155   -2166.8399330489      6.83e-04  
  156   -2166.8394959274      6.83e-04  
  157   -2166.4336624663      1.79e-03  
  158   -2166.9168521396      5.48e-04  
  159   -2166.9496125116      4.18e-04  
  160   -2166.8420981855      6.74e-04  
  161   -2166.9624193967      3.61e-04  
  162   -2166.9406460268      4.45e-04  
  163   -2166.9332320081      4.74e-04  
  164   -2166.9339577033      4.75e-04  
  165   -2166.9362400199      4.71e-04  
  166   -2166.9346367009      4.73e-04  
  167   -2166.9340643775      4.77e-04  
  168   -2166.9338730416      4.75e-04  
  169   -2166.9331663524      4.80e-04  
  170   -2166.9322951942      4.76e-04  
  171   -2166.9329443821      4.82e-04  
  172   -2166.9324790597      4.85e-04  
  173   -2166.9332486776      4.78e-04  
  174   -2166.9356226196      4.64e-04  
  175   -2166.9759315304      3.80e-04  
  176   -2166.8045252437      8.86e-04  
  177   -2166.9238005129      5.09e-04  
  178   -2166.9492143824      3.97e-04  
  179   -2166.9569539183      3.82e-04  
  180   -2166.9713125045      3.10e-04  
  181   -2166.8424591742      6.69e-04  
  182   -2166.9288620893      4.84e-04  
  183   -2166.9332494346      4.70e-04  
  184   -2166.9364972504      4.61e-04  
  185   -2166.9293702104      5.16e-04  
  186   -2166.9251874343      5.19e-04  
  187   -2166.9275126334      5.10e-04  
  188   -2166.9289023301      5.02e-04  
  189   -2166.9383068980      4.61e-04  
  190   -2166.9481024637      4.26e-04  
  191   -2166.8428513280      6.73e-04  
  192   -2166.8403777524      6.84e-04  
  193   -2166.8368410252      6.95e-04  
  194   -2166.8422991803      6.79e-04  
  195   -2166.9105600275      6.05e-04  
  196   -2166.9129295150      5.98e-04  
  197   -2166.9327670810      4.89e-04  
  198   -2166.9567193558      3.95e-04  
  199   -2166.9389607939      4.55e-04  
  200   -2166.9421227627      4.48e-04  
  201   -2166.9388122514      4.56e-04  
  202   -2166.9374198926      4.58e-04  
  203   -2166.9415107176      4.46e-04  
  204   -2166.9388274784      4.53e-04  
  205   -2166.9438389798      4.37e-04  
  206   -2166.9443805384      4.38e-04  
  207   -2166.9483329215      4.24e-04  
  208   -2166.9365782263      4.62e-04  
  209   -2166.9372775934      4.56e-04  
  210   -2166.8090433606      8.71e-04  
  211   -2166.9664454020      3.39e-04  
  212   -2166.9638315598      3.62e-04  
  213   -2166.9912554494      1.04e-04  
  214   -2166.8416615974      6.75e-04  
  215   -2166.8443879669      6.64e-04  
  216   -2166.9730499314      3.04e-04  
  217   -2166.9656644168      3.40e-04  
  218   -2166.8423940297      6.69e-04  
  219   -2166.9588354688      3.73e-04  
  220   -2166.9656764513      3.39e-04  
  221   -2166.9640000470      3.48e-04  
  222   -2166.9603226753      3.66e-04  
  223   -2166.9595832726      3.69e-04  
  224   -2166.9540833917      3.90e-04  
  225   -2166.9415609584      4.41e-04  
  226   -2166.9488283730      4.12e-04  
  227   -2166.8436062267      6.67e-04  
  228   -2166.8601171859      6.47e-04  
  229   -2166.9009471437      6.96e-04  
  230   -2166.8402088245      6.88e-04  
  231   -2166.8397434883      6.88e-04  
  232   -2166.8335949864      7.22e-04  
  233   -2166.8374020922      7.03e-04  
  234   -2166.8363428480      6.99e-04  
  235   -2166.8362858176      7.13e-04  
  236   -2166.9134197404      6.44e-04  
  237   -2166.9417973623      4.50e-04  
  238   -2166.9344409113      4.71e-04  
  239   -2166.9357885992      4.71e-04  
  240   -2166.9346519481      4.72e-04  
  241   -2166.9360115859      4.66e-04  
  242   -2166.9366890012      4.67e-04  
  243   -2166.9223019672      5.64e-04  
  244   -2166.9455358225      4.29e-04  
  245   -2166.9541296057      3.98e-04  
  246   -2166.9464422399      4.27e-04  
  247   -2166.9782013761      2.74e-04  
  248   -2166.9353793221      4.63e-04  
  249   -2166.9439618181      4.38e-04  
  250   -2166.9434076161      4.45e-04  
  251   -2166.8219930455      7.75e-04  
  252   -2166.9386719806      4.65e-04  
  253   -2166.9400248052      4.66e-04  
  254   -2166.9398061765      4.67e-04  
  255   -2166.8396065814      6.92e-04  
  256   -2166.9551153171      4.24e-04  
  257   -2166.8349176171      7.05e-04  
  258   -2166.9403258546      4.64e-04  
  259   -2166.9261410407      5.48e-04  
  260   -2166.9809866240      2.67e-04  
  261   -2166.9612946332      3.67e-04  
  262   -2166.9916513075      9.94e-05  
  263   -2166.8458391022      6.69e-04  
  264   -2166.9595356915      3.73e-04  
  265   -2166.9587965798      3.74e-04  
  266   -2166.9577252042      3.83e-04  
  267   -2166.8464860704      6.60e-04  
  268   -2166.9858641713      1.91e-04  
  269   -2166.9338430606      4.81e-04  
  270   -2166.9720228143      3.02e-04  
  271   -2166.9749439824      2.84e-04  
  272   -2166.9692625198      3.19e-04  
  273   -2166.9685518264      3.24e-04  
  274   -2166.9655481733      3.39e-04  
  275   -2166.8441348173      6.63e-04  
  276   -2166.8441652100      6.64e-04  
  277   -2166.8430771233      6.66e-04  
  278   -2166.8427049661      6.74e-04  
  279   -2166.8431154717      6.71e-04  
  280   -2166.8416666267      6.74e-04  
  281   -2166.8429910614      6.68e-04  
  282   -2166.8431044052      6.66e-04  
  283   -2166.8407295903      6.79e-04  
  284   -2166.9047408517      6.50e-04  
  285   -2166.9378596918      4.55e-04  
  286   -2166.9618432637      3.58e-04  
  287   -2166.9310818911      4.90e-04  
  288   -2166.9428867405      4.41e-04  
  289   -2166.9571177441      3.94e-04  
  290   -2166.9524061077      4.07e-04  
  291   -2166.9471404247      4.25e-04  
  292   -2166.9426999937      4.56e-04  
  293   -2166.9542842057      4.10e-04  
  294   -2166.9457488865      4.41e-04  
  295   -2166.9519630577      4.24e-04  
  296   -2166.9498005397      4.33e-04  
  297   -2166.9483884465      4.29e-04  
  298   -2166.9578958362      4.04e-04  
  299   -2166.7563792926      1.06e-03  
  300   -2166.8384075070      7.06e-04  
  301   -2166.9539728376      4.05e-04  
  302   -2166.9373523532      4.66e-04  
  303   -2166.4010258249      1.84e-03  
  304   -2166.9161582954      5.90e-04  
  305   -2166.9553630648      3.98e-04  
  306   -2166.9365677457      4.63e-04  
  307   -2166.9373194025      4.53e-04  
  308   -2166.9367342119      4.54e-04  
  309   -2166.9370823465      4.53e-04  
  310   -2166.9396375789      4.46e-04  
  311   -2166.9373952998      4.51e-04  
  312   -2166.9377911233      4.51e-04  
  313   -2166.9369653582      4.55e-04  
  314   -2166.9457632939      4.29e-04  
  315   -2166.9440980799      4.31e-04  
  316   -2166.8175000710      8.20e-04  
  317   -2166.9658991607      3.48e-04  
