
Running Job 1 of 1 car_1_diox_opt_vdz_mgga.in
qchem car_1_diox_opt_vdz_mgga.in_25506.0 /scr/c295_lal/156746/qchem25506/ 1
/usr/software/qchem_511/exe/qcprog.exe_s car_1_diox_opt_vdz_mgga.in_25506.0 /scr/c295_lal/156746/qchem25506/
Check license passed

                  Welcome to Q-Chem
     A Quantum Leap Into The Future Of Chemistry


 Q-Chem 5.1, Q-Chem, Inc., Pleasanton, CA (2018)

 Yihan Shao,  Zhengting Gan,  E. Epifanovsky,  A. T. B. Gilbert,  M. Wormit,  
 J. Kussmann,  A. W. Lange,  A. Behn,  Jia Deng,  Xintian Feng,  D. Ghosh,  
 M. Goldey,  P. R. Horn,  L. D. Jacobson,  I. Kaliman,  T. Kus,  A. Landau,  
 Jie Liu,  E. I. Proynov,  R. M. Richard,  R. P. Steele,  E. J. Sundstrom,  
 H. L. Woodcock III,  P. M. Zimmerman,  D. Zuev,  B. Albrecht,  E. Alguire,  
 S. A. Baeppler,  D. Barton,  Z. Benda,  Y. A. Bernard,  E. J. Berquist,  
 K. B. Bravaya,  H. Burton,  D. Casanova,  Chun-Min Chang,  Yunqing Chen,  
 A. Chien,  K. D. Closser,  M. P. Coons,  S. Coriani,  S. Dasgupta,  
 A. L. Dempwolff,  M. Diedenhofen,  Hainam Do,  R. G. Edgar,  Po-Tung Fang,  
 S. Faraji,  S. Fatehi,  Qingguo Feng,  K. D. Fenk,  J. Fosso-Tande,  
 Qinghui Ge,  A. Ghysels,  G. Gidofalvi,  J. Gomes,  J. Gonthier,  A. Gunina,  
 D. Hait,  M. W. D. Hanson-Heine,  P. H. P. Harbach,  A. W. Hauser,  
 J. E. Herr,  E. G. Hohenstein,  Z. C. Holden,  Kerwin Hui,  B. C. Huynh,  
 T.-C. Jagau,  Hyunjun Ji,  B. Kaduk,  K. Khistyaev,  Jaehoon Kim,  
 P. Klunzinger,  K. Koh,  D. Kosenkov,  L. Koulias,  T. Kowalczyk,  
 C. M. Krauter,  A. Kunitsa,  Ka Un Lao,  A. Laurent,  K. V. Lawler,  
 Joonho Lee,  D. Lefrancois,  S. Lehtola,  D. S. Levine,  Yi-Pei Li,  
 You-Sheng Lin,  Fenglai Liu,  E. Livshits,  A. Luenser,  P. Manohar,  
 E. Mansoor,  S. F. Manzer,  Shan-Ping Mao,  Yuezhi Mao,  N. Mardirossian,  
 A. V. Marenich,  T. Markovich,  L. A. Martinez-Martinez,  S. A. Maurer,  
 N. J. Mayhall,  S. C. McKenzie,  J.-M. Mewes,  A. F. Morrison,  
 J. W. Mullinax,  K. Nanda,  T. S. Nguyen-Beck,  R. Olivares-Amaya,  
 J. A. Parkhill,  T. M. Perrine,  F. Plasser,  P. Pokhilko,  S. Prager,  
 A. Prociuk,  E. Ramos,  D. R. Rehn,  F. Rob,  M. Schneider,  N. Sergueev,  
 S. M. Sharada,  S. Sharma,  D. W. Small,  T. Stauch,  T. Stein,  
 Yu-Chuan Su,  A. J. W. Thom,  A. Tkatchenko,  T. Tsuchimochi,  N. M. Tubman,  
 L. Vogt,  M. L. Vidal,  O. Vydrov,  M. A. Watson,  J. Wenzel,  
 M. de Wergifosse,  T. A. Wesolowski,  A. White,  J. Witte,  A. Yamada,  
 Jun Yang,  K. Yao,  S. Yeganeh,  S. R. Yost,  Zhi-Qiang You,  A. Zech,  
 Igor Ying Zhang,  Xing Zhang,  Yan Zhao,  Ying Zhu,  B. R. Brooks,  
 G. K. L. Chan,  C. J. Cramer,  M. S. Gordon,  W. J. Hehre,  A. Klamt,  
 M. W. Schmidt,  C. D. Sherrill,  D. G. Truhlar,  A. Aspuru-Guzik,  R. Baer,  
 A. T. Bell,  N. A. Besley,  Jeng-Da Chai,  A. E. DePrince, III,  
 R. A. DiStasio Jr.,  A. Dreuw,  B. D. Dunietz,  T. R. Furlani,  
 Chao-Ping Hsu,  Yousung Jung,  Jing Kong,  D. S. Lambrecht,  WanZhen Liang,  
 C. Ochsenfeld,  V. A. Rassolov,  L. V. Slipchenko,  J. E. Subotnik,  
 T. Van Voorhis,  J. M. Herbert,  A. I. Krylov,  P. M. W. Gill,  M. Head-Gordon

 Contributors to earlier versions of Q-Chem not listed above: 
 R. D. Adamson,  B. Austin,  J. Baker,  G. J. O. Beran,  K. Brandhorst,  
 S. T. Brown,  E. F. C. Byrd,  A. K. Chakraborty,  C.-L. Cheng,  
 Siu Hung Chien,  D. M. Chipman,  D. L. Crittenden,  H. Dachsel,  
 R. J. Doerksen,  A. D. Dutoi,  L. Fusti-Molnar,  W. A. Goddard III,  
 A. Golubeva-Zadorozhnaya,  S. R. Gwaltney,  G. Hawkins,  A. Heyden,  
 S. Hirata,  G. Kedziora,  F. J. Keil,  C. Kelley,  Jihan Kim,  R. A. King,  
 R. Z. Khaliullin,  P. P. Korambath,  W. Kurlancheek,  A. M. Lee,  M. S. Lee,  
 S. V. Levchenko,  Ching Yeh Lin,  D. Liotard,  R. C. Lochan,  I. Lotan,  
 P. E. Maslen,  N. Nair,  D. P. O'Neill,  D. Neuhauser,  E. Neuscamman,  
 C. M. Oana,  R. Olson,  B. Peters,  R. Peverati,  P. A. Pieniazek,  
 Y. M. Rhee,  J. Ritchie,  M. A. Rohrdanz,  E. Rosta,  N. J. Russ,  
 H. F. Schaefer III,  N. E. Schultz,  N. Shenvi,  A. C. Simmonett,  A. Sodt,  
 D. Stuck,  K. S. Thanthiriwatte,  V. Vanovschi,  Tao Wang,  A. Warshel,  
 C. F. Williams,  Q. Wu,  X. Xu,  W. Zhang

 Please cite Q-Chem as follows:
 Y. Shao et al., Mol. Phys. 113, 184-215 (2015)
 DOI: 10.1080/00268976.2014.952696

 Q-Chem 5.1.1 for Intel X86 EM64T Linux

 Parts of Q-Chem use Armadillo 8.300.2 (Tropical Shenanigans).
 http://arma.sourceforge.net/

 Q-Chem begins on Mon Nov 26 15:14:30 2018  

Host: cub-0-6.local
0

     Scratch files written to /scr/c295_lal/156746/qchem25506//
 Aug318 |scratch|qcdevops|jenkins|workspace|build_RNUM -1
Processing $rem in /usr/software/qchem_511/config/preferences.
 MEM_TOTAL  2000 
Input Ideriv = 2
Curr. Ideriv = -1
Max.  Ideriv = 2
Input Ideriv = 1
Curr. Ideriv = 2
Max.  Ideriv = 1

Checking the input file for inconsistencies... 	...done.

--------------------------------------------------------------
User input:
--------------------------------------------------------------
$molecule
0 1
O
C  1 1.520940
H  2 1.090391 1 106.849456
C  2 1.504543 1 115.381433 3 -124.428609 0
C  4 1.358447 2 122.398281 1 -54.665698 0
C  5 1.515594 4 124.939621 2 5.939217 0
H  6 1.088187 5 113.334987 4 14.068541 0
H  6 1.098833 5 109.197535 4 133.963037 0
H  6 1.100058 5 110.791383 4 -109.481991 0
C  5 1.519544 4 122.394040 2 -174.054594 0
H  10 1.099719 5 108.331046 4 139.437005 0
H  10 1.102731 5 108.881979 4 -106.412455 0
C  10 1.531842 5 113.282798 4 16.128763 0
H  13 1.096961 10 110.473019 5 -170.083518 0
H  13 1.098779 10 109.801580 5 72.379376 0
C  13 1.531487 10 108.755190 5 -48.400570 0
H  16 1.097997 13 111.274354 10 -175.428042 0
H  16 1.099932 13 108.406171 10 -58.548620 0
C  4 1.549751 2 114.574140 1 125.553090 0
C  19 1.553809 4 110.177862 2 64.960843 0
H  20 1.095990 19 111.197951 4 63.695473 0
H  20 1.096442 19 111.739237 4 -56.891625 0
H  20 1.097235 19 110.215749 4 -176.374903 0
C  19 1.555499 4 110.364562 2 -55.287439 0
H  24 1.094987 19 113.041334 4 67.398963 0
H  24 1.095730 19 110.683986 4 -54.008222 0
H  24 1.097109 19 109.420184 4 -173.132489 0
C  2 1.556231 1 89.413760 3 109.072441 0
H  28 1.093828 2 112.134178 1 96.489966 0
C  28 1.501991 2 119.549879 1 -131.107970 0
C  30 1.355017 28 119.868567 2 80.962826 0
H  31 1.088219 30 116.922434 28 1.201355 0
C  31 1.455599 30 127.178844 28 179.757455 0
H  33 1.088075 31 118.095308 30 0.700064 0
C  33 1.346814 31 123.214952 30 -179.325317 0
H  35 1.084953 33 121.921486 31 -179.890947 0
H  35 1.086989 33 121.517166 31 0.208648 0
O  28 1.506577 2 89.620839 1 -14.066116 0
C  30 1.511505 28 114.359846 2 -99.673973 0
H  39 1.091570 30 112.732391 28 176.824927 0
H  39 1.098451 30 111.269282 28 55.842417 0
H  39 1.099223 30 110.613705 28 -62.480705 0
$end

$rem
BASIS = VDZ
METHOD  = B97M-rV
JOBTYPE = OPT
$end
--------------------------------------------------------------
 ----------------------------------------------------------------
             Standard Nuclear Orientation (Angstroms)
    I     Atom           X                Y                Z
 ----------------------------------------------------------------
    1      O       0.2732900070     1.5285087258    -1.7243120063
    2      C       0.0926102487     0.4010836315    -0.7195603130
    3      H       0.5375402951    -0.4907545653    -1.1618434999
    4      C      -1.3245351590     0.1479362372    -0.2822218525
    5      C      -2.1112893901     1.1254566571     0.2382105259
    6      C      -1.7312784654     2.5899040180     0.3277135832
    7      H      -0.8657673774     2.8484880341    -0.2790613422
    8      H      -2.5744034713     3.2037796294    -0.0183079770
    9      H      -1.5482164281     2.8826880406     1.3721720122
   10      C      -3.4943218983     0.8439033101     0.8012049858
   11      H      -3.6236934794     1.4410725559     1.7155538060
   12      H      -4.2512514301     1.2226434195     0.0943603977
   13      C      -3.7425845017    -0.6412132337     1.0828686931
   14      H      -4.7998703959    -0.8157381858     1.3174129628
   15      H      -3.1658958260    -0.9544132521     1.9641468618
   16      C      -3.3193920768    -1.4527448984    -0.1450470043
   17      H      -3.5549124059    -2.5177776354    -0.0192183284
   18      H      -3.9016194581    -1.1028053823    -1.0101504757
   19      C      -1.8055273552    -1.3133372352    -0.4694503440
   20      C      -0.9923869392    -2.2670804517     0.4489716448
   21      H      -1.1644629102    -2.0402598344     1.5073365856
   22      H       0.0850216158    -2.1922631166     0.2598202995
   23      H      -1.2875689348    -3.3086295358     0.2701763984
   24      C      -1.6193650439    -1.7592499326    -1.9479910432
   25      H      -0.5677056966    -1.8409125588    -2.2418283502
   26      H      -2.1091331333    -1.0546120245    -2.6293403443
   27      H      -2.0751387620    -2.7468650190    -2.0912911369
   28      C       1.1517615775     1.0734714439     0.2012806167
   29      H       0.6904937424     1.6905662073     0.9777377829
   30      C       2.2726921929     0.2486129491     0.7661699713
   31      C       3.3602338700    -0.0234919105     0.0050634634
   32      H       3.3769922058     0.3969430086    -0.9985172403
   33      C       4.5319241072    -0.7967636498     0.3897207836
   34      H       4.5583612465    -1.2235749478     1.3902408480
   35      C       5.5787326298    -1.0076286577    -0.4310324168
   36      H       6.4412366685    -1.5892443186    -0.1229203941
   37      H       5.6018698497    -0.6003819456    -1.4385838402
   38      O       1.5735358970     1.9556573789    -0.9448557873
   39      C       2.0605168511    -0.1964478356     2.1949981230
   40      H       2.8637125175    -0.8390485796     2.5603282069
   41      H       1.1174697712    -0.7489817610     2.3043739235
   42      H       1.9955906790     0.6722902789     2.8653486911
 ----------------------------------------------------------------
 Molecular Point Group                 C1    NOp =  1
 Largest Abelian Subgroup              C1    NOp =  1
 Nuclear Repulsion Energy =  1384.4807564562 hartrees
 There are       68 alpha and       68 beta electrons
 Requested basis set is VDZ
 There are 138 shells and 210 basis functions

 Total QAlloc Memory Limit   2000 MB
 Mega-Array Size       188 MB
 MEM_STATIC part       192 MB
 A cutoff of  1.0D-11 yielded   7892 shell pairs
 There are     18770 function pairs
 
 -------------------------------------------------------
 OpenMP Integral Computing Module                       
 Release: version 1.0, May 2013, Q-Chem Inc. Pittsburgh 
 -------------------------------------------------------
 Integral Job Info:
 Integral job number is                      11
 Integral operator is                         1
 short-range coefficients                     0
 long-range coefficients              100000000
 Omega coefficients                           0
 if combine SR and LR in K                    0
 Integral screening is                        0
 Integral computing path is                   2
 max size of driver memory is            800000
 size of driver memory is                 45569
 size of scratch memory is              1477076
 max col of scratch BK array                289
 max len of scratch array in speh3           22
 max len of scratch index in speh4            8
 max int batch size is                      520
 min int batch size is                       52
 fixed nKL is                                52
 max L of basis functions is                  1
 order of int derivative is                   0
 number of shells is                        138
 number of basis is                         210
 number of cartesian basis is               210
 number of contracted shell pairs          7892
 number of primitive shell pairs          21686
 maxK2 (contraction) of shell pair           25
 max number of K2 of shell pair               1
 max number of CS2 of shell pair           1978
 max number of PS2 of shell pair           5045
 mem total for path MDJ                  583424
 -------------------------------------------------------
 Smallest overlap matrix eigenvalue = 8.44E-04

 Scale SEOQF with 1.000000e-02/1.000000e-01/1.000000e-01

 Standard Electronic Orientation quadrupole field applied
 Nucleus-field energy     =     0.0000000057 hartrees
 Guess from superposition of atomic densities
 Warning:  Energy on first SCF cycle will be non-variational
 SAD guess density has 136.000000 electrons

 -----------------------------------------------------------------------
  General SCF calculation program by
  Eric Jon Sundstrom, Paul Horn, Yuezhi Mao, Dmitri Zuev, Alec White,
  David Stuck, Shaama M.S., Shane Yost, Joonho Lee, David Small,
  Daniel Levine, Susi Lehtola, Hugh Burton, Evgeny Epifanovsky
 -----------------------------------------------------------------------
 Exchange:  B97M-V      Correlation:  B97M-V
 Using SG-2 standard quadrature grid
 Nonlocal Correlation:  rVV10 with C = 0.0100 and b = 6.00 and scale = 1.00000
 Grid used for NLC:  SG-1 standard quadrature
 using 8 threads for integral computing
 -------------------------------------------------------
 OpenMP Integral computing Module                
 Release: version 1.0, May 2013, Q-Chem Inc. Pittsburgh 
 -------------------------------------------------------
 -------------------------------------------------------
 OpenMP BLAS3 based DFT computing Module                
 Release: version 1.0, May 2013, Q-Chem Inc. Pittsburgh 
 -------------------------------------------------------
 -------------------------------------------------------
 OpenMP BLAS3 based DFT computing Module                
 Release: version 1.0, May 2013, Q-Chem Inc. Pittsburgh 
 -------------------------------------------------------
 -------------------------------------------------------
 OpenMP BLAS3 based DFT computing Module                
 Release: version 1.0, May 2013, Q-Chem Inc. Pittsburgh 
 -------------------------------------------------------
 Nonlocal correlation = 0.475464082644
 A restricted SCF calculation will be
 performed using DIIS
 SCF converges when DIIS error is below 1.0e-08
 ---------------------------------------
  Cycle       Energy         DIIS error
 ---------------------------------------
 Nonlocal correlation = 5.044857266861e-01
    1    -776.3927424847      6.45e-02  
 Nonlocal correlation = 4.931803868281e-01
    2    -773.2413521359      6.99e-03  
 Nonlocal correlation = 4.974413746157e-01
    3    -773.0764179476      8.61e-03  
 Nonlocal correlation = 4.978422618577e-01
    4    -773.5536650529      1.39e-03  
 Nonlocal correlation = 4.978897069962e-01
    5    -773.5638656808      6.04e-04  
 Nonlocal correlation = 4.978415892784e-01
    6    -773.5653485689      3.87e-04  
 Nonlocal correlation = 4.978319992136e-01
    7    -773.5661097943      9.89e-05  
 Nonlocal correlation = 4.978339855069e-01
    8    -773.5661481300      4.61e-05  
 Nonlocal correlation = 4.978324214190e-01
    9    -773.5661587332      1.50e-05  
 Nonlocal correlation = 4.978328706523e-01
   10    -773.5661600649      2.62e-06  
 Nonlocal correlation = 4.978330200712e-01
   11    -773.5661601012      1.21e-06  
 Nonlocal correlation = 4.978330036090e-01
   12    -773.5661601098      3.42e-07  
 Nonlocal correlation = 4.978330083009e-01
   13    -773.5661601104      8.72e-08  
 Nonlocal correlation = 4.978330108434e-01
   14    -773.5661601105      3.62e-08  
 Nonlocal correlation = 4.978330102322e-01
   15    -773.5661601105      1.09e-08  
   16    -773.5661601105      2.44e-09  Convergence criterion met
 ---------------------------------------
 SCF time:   CPU 9138.20s  wall 1145.00s 
 SCF   energy in the final basis set =     -773.5661601105
 Total energy in the final basis set =     -773.5661601105
 
 --------------------------------------------------------------
 
                    Orbital Energies (a.u.)
 --------------------------------------------------------------
 
 Alpha MOs
 -- Occupied --
-19.201 -19.198 -10.256 -10.255 -10.220 -10.213 -10.213 -10.201
-10.199 -10.194 -10.193 -10.193 -10.188 -10.186 -10.186 -10.181
-10.176 -10.176  -1.066  -0.871  -0.835  -0.805  -0.773  -0.762
 -0.745  -0.704  -0.672  -0.665  -0.662  -0.656  -0.604  -0.573
 -0.559  -0.542  -0.508  -0.493  -0.477  -0.461  -0.456  -0.439
 -0.432  -0.428  -0.412  -0.409  -0.400  -0.399  -0.395  -0.384
 -0.382  -0.379  -0.374  -0.366  -0.357  -0.351  -0.340  -0.337
 -0.333  -0.329  -0.323  -0.314  -0.305  -0.301  -0.301  -0.294
 -0.277  -0.230  -0.215  -0.203
 -- Virtual --
 -0.078  -0.055  -0.031   0.023   0.034   0.044   0.048   0.058
  0.064   0.072   0.075   0.079   0.083   0.092   0.102   0.105
  0.111   0.122   0.125   0.134   0.139   0.141   0.145   0.149
  0.153   0.155   0.163   0.169   0.174   0.179   0.188   0.197
  0.199   0.215   0.221   0.229   0.242   0.246   0.259   0.273
  0.298   0.307   0.334   0.339   0.360   0.384   0.399   0.408
  0.424   0.429   0.439   0.446   0.450   0.464   0.469   0.482
  0.496   0.501   0.507   0.512   0.524   0.531   0.547   0.553
  0.569   0.581   0.588   0.597   0.602   0.612   0.613   0.620
  0.632   0.635   0.639   0.649   0.657   0.660   0.669   0.670
  0.676   0.680   0.686   0.686   0.690   0.694   0.697   0.703
  0.707   0.708   0.713   0.717   0.722   0.726   0.726   0.734
  0.739   0.741   0.750   0.754   0.764   0.773   0.781   0.785
  0.803   0.804   0.815   0.837   0.841   0.859   0.863   0.873
  0.904   0.911   0.927   0.962   0.970   0.979   0.993   1.016
  1.046   1.047   1.084   1.108   1.119   1.146   1.156   1.163
  1.185   1.196   1.213   1.244   1.281   1.308   1.324   1.332
  1.354   1.388   1.445   1.504   1.601   1.880
 --------------------------------------------------------------
 
          Ground-State Mulliken Net Atomic Charges

     Atom                 Charge (a.u.)
  ----------------------------------------
      1 O                    -0.295218
      2 C                     0.093918
      3 H                     0.096067
      4 C                     0.086669
      5 C                    -0.167070
      6 C                    -0.259923
      7 H                     0.170342
      8 H                     0.117269
      9 H                     0.117717
     10 C                    -0.169922
     11 H                     0.104273
     12 H                     0.112881
     13 C                    -0.143488
     14 H                     0.097957
     15 H                     0.096576
     16 C                    -0.120089
     17 H                     0.092400
     18 H                     0.093861
     19 C                    -0.361379
     20 C                    -0.225887
     21 H                     0.118667
     22 H                     0.115263
     23 H                     0.107756
     24 C                    -0.196868
     25 H                     0.118540
     26 H                     0.114425
     27 H                     0.106287
     28 C                     0.132747
     29 H                     0.092807
     30 C                    -0.089539
     31 C                    -0.095054
     32 H                     0.100145
     33 C                    -0.066772
     34 H                     0.080655
     35 C                    -0.202045
     36 H                     0.104204
     37 H                     0.108959
     38 O                    -0.307996
     39 C                    -0.253855
     40 H                     0.120047
     41 H                     0.125451
     42 H                     0.129221
  ----------------------------------------
  Sum of atomic charges =     0.000000

 -----------------------------------------------------------------
                    Cartesian Multipole Moments
 -----------------------------------------------------------------
    Charge (ESU x 10^10)
                 0.0000
    Dipole Moment (Debye)
         X      -1.7187      Y      -2.4138      Z       3.0336
       Tot       4.2406
    Quadrupole Moments (Debye-Ang)
        XX    -106.2727     XY      -5.8013     YY    -116.5185
        XZ       2.0125     YZ       5.6871     ZZ    -113.8363
    Octopole Moments (Debye-Ang^2)
       XXX       4.3054    XXY     -11.7562    XYY     -15.8207
       YYY       5.1816    XXZ      -2.3248    XYZ      -1.1786
       YYZ       9.4403    XZZ       6.8941    YZZ      -3.4781
       ZZZ       3.0288
    Hexadecapole Moments (Debye-Ang^3)
      XXXX   -5008.4052   XXXY    -116.4595   XXYY   -1111.9991
      XYYY       0.2125   YYYY   -1454.5591   XXXZ     -41.2145
      XXYZ     -20.2989   XYYZ      15.1482   YYYZ       4.7024
      XXZZ    -989.5718   XYZZ      -6.4591   YYZZ    -401.1444
      XZZZ       0.4789   YZZZ      -0.7679   ZZZZ    -901.7325
 -----------------------------------------------------------------
 Calculating analytic gradient of the SCF energy
 Gradient of SCF Energy
            1           2           3           4           5           6
    1   0.0007642   0.0010451  -0.0017566  -0.0051097   0.0051289   0.0014182
    2   0.0039834  -0.0083703   0.0049961   0.0069347  -0.0065605   0.0093462
    3  -0.0048672  -0.0024608   0.0024501   0.0039364  -0.0041464   0.0003325
            7           8           9          10          11          12
    1  -0.0046221   0.0034595  -0.0004507  -0.0072091   0.0005300   0.0031390
    2  -0.0009409  -0.0021683  -0.0008326   0.0071058  -0.0024376  -0.0017280
    3   0.0026158   0.0011732  -0.0037554   0.0020560  -0.0031448   0.0027634
           13          14          15          16          17          18
    1  -0.0042289   0.0032930  -0.0024123  -0.0056011   0.0003779   0.0018255
    2  -0.0031668   0.0005569   0.0013298  -0.0052368   0.0038985  -0.0019023
    3   0.0081469  -0.0008005  -0.0037426  -0.0050127  -0.0002052   0.0039014
           19          20          21          22          23          24
    1   0.0001087   0.0054570   0.0007528  -0.0050636   0.0010950   0.0005111
    2   0.0003053  -0.0065849  -0.0013245  -0.0009337   0.0041466  -0.0030516
    3  -0.0003279   0.0056163  -0.0044988   0.0009281   0.0008750  -0.0090718
           25          26          27          28          29          30
    1  -0.0044151   0.0022240   0.0018871  -0.0023810   0.0027491   0.0083970
    2   0.0000112  -0.0034361   0.0041804   0.0030830  -0.0031169  -0.0026307
    3   0.0004320   0.0028543   0.0001812   0.0088254  -0.0044947  -0.0056602
           31          32          33          34          35          36
    1  -0.0066047   0.0002577   0.0071859   0.0002506  -0.0004591  -0.0041419
    2   0.0043069  -0.0016871  -0.0042712   0.0016178   0.0000392   0.0028434
    3  -0.0016117   0.0045637   0.0016060  -0.0044972   0.0001773  -0.0018111
           37          38          39          40          41          42
    1   0.0004255   0.0021411  -0.0015466  -0.0034816   0.0045657   0.0004984
    2  -0.0020364   0.0047947  -0.0025732   0.0027629   0.0021753  -0.0034223
    3   0.0050481  -0.0038337   0.0094259  -0.0013789  -0.0002209  -0.0023696
 Max gradient component =       9.426E-03
 RMS gradient           =       3.874E-03
 Gradient time:  CPU 1507.66 s  wall 256.27 s
 Geometry Optimization Parameters
   NAtoms,    NIC,     NZ,  NCons,   NDum,   NFix, NCnnct, MaxDiis
       42     320      42       0       0       0       0       0


** GEOMETRY OPTIMIZATION IN DELOCALIZED INTERNAL COORDINATES **
   Searching for a Minimum

   Optimization Cycle:   1

                       Coordinates (Angstroms)
     ATOM                X               Y               Z
      1  O         0.2732900070    1.5285087258   -1.7243120063
      2  C         0.0926102487    0.4010836315   -0.7195603130
      3  H         0.5375402951   -0.4907545653   -1.1618434999
      4  C        -1.3245351590    0.1479362372   -0.2822218525
      5  C        -2.1112893901    1.1254566571    0.2382105259
      6  C        -1.7312784654    2.5899040180    0.3277135832
      7  H        -0.8657673774    2.8484880341   -0.2790613422
      8  H        -2.5744034713    3.2037796294   -0.0183079770
      9  H        -1.5482164281    2.8826880406    1.3721720122
     10  C        -3.4943218983    0.8439033101    0.8012049858
     11  H        -3.6236934794    1.4410725559    1.7155538060
     12  H        -4.2512514301    1.2226434195    0.0943603977
     13  C        -3.7425845017   -0.6412132337    1.0828686931
     14  H        -4.7998703959   -0.8157381858    1.3174129628
     15  H        -3.1658958260   -0.9544132521    1.9641468618
     16  C        -3.3193920768   -1.4527448984   -0.1450470043
     17  H        -3.5549124059   -2.5177776354   -0.0192183284
     18  H        -3.9016194581   -1.1028053823   -1.0101504757
     19  C        -1.8055273552   -1.3133372352   -0.4694503440
     20  C        -0.9923869392   -2.2670804517    0.4489716448
     21  H        -1.1644629102   -2.0402598344    1.5073365856
     22  H         0.0850216158   -2.1922631166    0.2598202995
     23  H        -1.2875689348   -3.3086295358    0.2701763984
     24  C        -1.6193650439   -1.7592499326   -1.9479910432
     25  H        -0.5677056966   -1.8409125588   -2.2418283502
     26  H        -2.1091331333   -1.0546120245   -2.6293403443
     27  H        -2.0751387620   -2.7468650190   -2.0912911369
     28  C         1.1517615775    1.0734714439    0.2012806167
     29  H         0.6904937424    1.6905662073    0.9777377829
     30  C         2.2726921929    0.2486129491    0.7661699713
     31  C         3.3602338700   -0.0234919105    0.0050634634
     32  H         3.3769922058    0.3969430086   -0.9985172403
     33  C         4.5319241072   -0.7967636498    0.3897207836
     34  H         4.5583612465   -1.2235749478    1.3902408480
     35  C         5.5787326298   -1.0076286577   -0.4310324168
     36  H         6.4412366685   -1.5892443186   -0.1229203941
     37  H         5.6018698497   -0.6003819456   -1.4385838402
     38  O         1.5735358970    1.9556573789   -0.9448557873
     39  C         2.0605168511   -0.1964478356    2.1949981230
     40  H         2.8637125175   -0.8390485796    2.5603282069
     41  H         1.1174697712   -0.7489817610    2.3043739235
     42  H         1.9955906790    0.6722902789    2.8653486911
   Point Group: c1    Number of degrees of freedom:   120


   Energy is   -773.566160110


 Attempting to Generate Delocalized Internal Coordinates

120 Hessian modes will be used to form the next step
  Hessian Eigenvalues:
     0.002000    0.002061    0.002978    0.003803    0.007116    0.007389
     0.007657    0.008578    0.008915    0.010649    0.010794    0.013913
     0.015052    0.015264    0.021775    0.022288    0.028357    0.029413
     0.029442    0.029442    0.031596    0.036410    0.037458    0.042762
     0.047242    0.047479    0.048794    0.050910    0.052184    0.052738
     0.053315    0.054800    0.055777    0.058843    0.059227    0.067706
     0.068654    0.069833    0.072702    0.074697    0.077698    0.078274
     0.083734    0.084445    0.096117    0.096621    0.098383    0.119020
     0.120712    0.130860    0.133852    0.159979    0.160000    0.160000
     0.160000    0.160000    0.160000    0.160000    0.160000    0.160000
     0.160000    0.160000    0.160000    0.160000    0.160000    0.160000
     0.160000    0.160442    0.189248    0.208186    0.220000    0.220008
     0.229791    0.246416    0.249980    0.249990    0.249998    0.250000
     0.264692    0.265458    0.271889    0.272373    0.273299    0.280932
     0.287842    0.290478    0.298296    0.307949    0.310258    0.311997
     0.319053    0.321693    0.333819    0.336757    0.336896    0.337132
     0.337682    0.338115    0.338175    0.338540    0.339046    0.339897
     0.340039    0.340204    0.340787    0.341295    0.341588    0.342426
     0.343740    0.346318    0.347675    0.350193    0.350230    0.350360
     0.351629    0.354025    0.375208    0.512851    0.539676    0.557048

 Minimum Search - Taking Simple RFO Step
 Searching for Lamda that Minimizes Along All modes
 Value Taken    Lamda =  -0.00415543
 Step Taken.  Stepsize is  0.198460

                             Maximum     Tolerance    Cnvgd?
         Gradient           0.009539      0.000300      NO
         Displacement       0.067906      0.001200      NO
         Energy change     *********      0.000001      NO


 New Cartesian Coordinates Obtained by Inverse Iteration

 Displacement from previous Coordinates is:  0.709595
 ----------------------------------------------------------------
             Standard Nuclear Orientation (Angstroms)
    I     Atom           X                Y                Z
 ----------------------------------------------------------------
    1      O       0.2467456048     1.5246184602    -1.7359882042
    2      C       0.0854319448     0.4034639656    -0.7373767998
    3      H       0.5377713344    -0.4940838968    -1.1821571668
    4      C      -1.3143633080     0.1470503012    -0.2919039286
    5      C      -2.0956296903     1.1205086257     0.2479160915
    6      C      -1.7021046212     2.5706259566     0.3603301312
    7      H      -0.8210734177     2.8287451065    -0.2386360924
    8      H      -2.5420496693     3.2022954437     0.0177652994
    9      H      -1.5229124994     2.8442589551     1.4169231860
   10      C      -3.4658601739     0.8295531812     0.8129925902
   11      H      -3.5921517213     1.4195149017     1.7398511758
   12      H      -4.2343892874     1.2166736290     0.1121699973
   13      C      -3.7010572270    -0.6548449701     1.0772101380
   14      H      -4.7611127818    -0.8386696576     1.3168317463
   15      H      -3.1146368052    -0.9773152384     1.9577202356
   16      C      -3.2827841915    -1.4478302661    -0.1560843650
   17      H      -3.5155803162    -2.5211667155    -0.0440153980
   18      H      -3.8619794189    -1.0835326339    -1.0264565807
   19      C      -1.7779036153    -1.3038937723    -0.4672893806
   20      C      -0.9609390733    -2.2217472895     0.4656181483
   21      H      -1.1545888084    -1.9836075134     1.5253008284
   22      H       0.1240084783    -2.1155695731     0.2885039260
   23      H      -1.2266962011    -3.2792350558     0.2929117879
   24      C      -1.5664305931    -1.7545477807    -1.9288193049
   25      H      -0.5012223776    -1.8184628197    -2.2024175216
   26      H      -2.0606149518    -1.0571029512    -2.6264877199
   27      H      -2.0050670980    -2.7580080530    -2.0694512228
   28      C       1.1214641350     1.0882043270     0.1783179928
   29      H       0.6469323512     1.7138242149     0.9531081433
   30      C       2.2255872447     0.2658256570     0.7504265836
   31      C       3.3157496035    -0.0225181314    -0.0089539938
   32      H       3.3383164521     0.3913844831    -1.0229830455
   33      C       4.4706298230    -0.8062169954     0.3855249565
   34      H       4.4886807282    -1.2194602475     1.3995782993
   35      C       5.5175406924    -1.0455771019    -0.4357655933
   36      H       6.3782137847    -1.6384923864    -0.1164783274
   37      H       5.5409828713    -0.6536465509    -1.4580475101
   38      O       1.5515291212     1.9480465722    -0.9682017244
   39      C       1.9891829164    -0.1845440967     2.1640384222
   40      H       2.7818723401    -0.8471637393     2.5375146170
   41      H       1.0278436452    -0.7244657865     2.2537145462
   42      H       1.9259302102     0.6858945007     2.8429225072
 ----------------------------------------------------------------
 Molecular Point Group                 C1    NOp =  1
 Largest Abelian Subgroup              C1    NOp =  1
 Nuclear Repulsion Energy =  1394.3535942196 hartrees
 There are       68 alpha and       68 beta electrons
 Applying Cartesian multipole field
    Component          Value
    ---------          -----
     (2,0,0)        1.00000E-12
     (0,2,0)        2.00000E-11
     (0,0,2)       -3.00000E-11
 Nucleus-field energy     =     0.0000000055 hartrees
 Requested basis set is VDZ
 There are 138 shells and 210 basis functions
 A cutoff of  1.0D-11 yielded   7939 shell pairs
 There are     18893 function pairs
 Smallest overlap matrix eigenvalue = 7.75E-04
 Guess MOs from SCF MO coefficient file

 -----------------------------------------------------------------------
  General SCF calculation program by
  Eric Jon Sundstrom, Paul Horn, Yuezhi Mao, Dmitri Zuev, Alec White,
  David Stuck, Shaama M.S., Shane Yost, Joonho Lee, David Small,
  Daniel Levine, Susi Lehtola, Hugh Burton, Evgeny Epifanovsky
 -----------------------------------------------------------------------
 Exchange:  B97M-V      Correlation:  B97M-V
 Using SG-2 standard quadrature grid
 Nonlocal Correlation:  rVV10 with C = 0.0100 and b = 6.00 and scale = 1.00000
 Grid used for NLC:  SG-1 standard quadrature
 using 8 threads for integral computing
 -------------------------------------------------------
 OpenMP Integral computing Module                
 Release: version 1.0, May 2013, Q-Chem Inc. Pittsburgh 
 -------------------------------------------------------
 -------------------------------------------------------
 OpenMP BLAS3 based DFT computing Module                
 Release: version 1.0, May 2013, Q-Chem Inc. Pittsburgh 
 -------------------------------------------------------
 -------------------------------------------------------
 OpenMP BLAS3 based DFT computing Module                
 Release: version 1.0, May 2013, Q-Chem Inc. Pittsburgh 
 -------------------------------------------------------
 -------------------------------------------------------
 OpenMP BLAS3 based DFT computing Module                
 Release: version 1.0, May 2013, Q-Chem Inc. Pittsburgh 
 -------------------------------------------------------
 Nonlocal correlation = 0.496710377559
 A restricted SCF calculation will be
 performed using DIIS
 SCF converges when DIIS error is below 1.0e-08
 ---------------------------------------
  Cycle       Energy         DIIS error
 ---------------------------------------
 Nonlocal correlation = 4.965071708469e-01
    1    -773.5656900876      4.59e-04  
 Nonlocal correlation = 4.966044758197e-01
    2    -773.5677703927      1.43e-04  
 Nonlocal correlation = 4.965694656075e-01
    3    -773.5675917737      2.16e-04  
 Nonlocal correlation = 4.965652974645e-01
    4    -773.5678728402      6.73e-05  
 Nonlocal correlation = 4.965640343394e-01
    5    -773.5679010697      9.80e-06  
 Nonlocal correlation = 4.965632813525e-01
    6    -773.5679012686      7.97e-06  
 Nonlocal correlation = 4.965635961106e-01
    7    -773.5679015685      1.64e-06  
 Nonlocal correlation = 4.965636347740e-01
    8    -773.5679015818      5.90e-07  
 Nonlocal correlation = 4.965636020703e-01
    9    -773.5679015839      1.88e-07  
 Nonlocal correlation = 4.965636077257e-01
   10    -773.5679015842      4.44e-08  
   11    -773.5679015842      9.63e-09  Convergence criterion met
 ---------------------------------------
 SCF time:   CPU 6287.20s  wall 788.00s 
 SCF   energy in the final basis set =     -773.5679015842
 Total energy in the final basis set =     -773.5679015842
 
 --------------------------------------------------------------
 
                    Orbital Energies (a.u.)
 --------------------------------------------------------------
 
 Alpha MOs
 -- Occupied --
-19.202 -19.199 -10.255 -10.253 -10.217 -10.212 -10.212 -10.200
-10.199 -10.195 -10.194 -10.194 -10.189 -10.188 -10.187 -10.183
-10.178 -10.178  -1.072  -0.875  -0.840  -0.807  -0.777  -0.764
 -0.746  -0.705  -0.671  -0.665  -0.663  -0.656  -0.604  -0.572
 -0.559  -0.542  -0.507  -0.495  -0.478  -0.463  -0.459  -0.440
 -0.432  -0.428  -0.414  -0.410  -0.400  -0.399  -0.395  -0.384
 -0.382  -0.380  -0.374  -0.365  -0.357  -0.351  -0.340  -0.338
 -0.334  -0.330  -0.324  -0.315  -0.306  -0.301  -0.301  -0.294
 -0.277  -0.229  -0.214  -0.203
 -- Virtual --
 -0.079  -0.056  -0.030   0.022   0.034   0.043   0.047   0.057
  0.062   0.072   0.074   0.078   0.081   0.092   0.102   0.104
  0.110   0.121   0.123   0.133   0.138   0.141   0.143   0.148
  0.151   0.157   0.163   0.171   0.176   0.181   0.189   0.200
  0.204   0.218   0.225   0.232   0.245   0.249   0.263   0.278
  0.303   0.307   0.335   0.340   0.360   0.386   0.400   0.409
  0.424   0.430   0.441   0.449   0.453   0.465   0.472   0.483
  0.499   0.502   0.510   0.513   0.527   0.532   0.547   0.552
  0.577   0.578   0.588   0.597   0.604   0.613   0.614   0.620
  0.631   0.638   0.639   0.648   0.655   0.659   0.668   0.670
  0.673   0.680   0.683   0.686   0.690   0.693   0.694   0.701
  0.705   0.708   0.713   0.714   0.721   0.725   0.725   0.732
  0.735   0.741   0.748   0.753   0.766   0.775   0.781   0.788
  0.806   0.809   0.818   0.835   0.845   0.862   0.864   0.874
  0.911   0.915   0.933   0.965   0.978   0.978   0.992   1.025
  1.047   1.050   1.084   1.113   1.126   1.150   1.158   1.170
  1.189   1.203   1.213   1.252   1.296   1.309   1.331   1.339
  1.362   1.398   1.452   1.508   1.609   1.883
 --------------------------------------------------------------
 
          Ground-State Mulliken Net Atomic Charges

     Atom                 Charge (a.u.)
  ----------------------------------------
      1 O                    -0.294254
      2 C                     0.077248
      3 H                     0.101591
      4 C                     0.098223
      5 C                    -0.165757
      6 C                    -0.267471
      7 H                     0.175375
      8 H                     0.119007
      9 H                     0.119299
     10 C                    -0.171943
     11 H                     0.105158
     12 H                     0.114957
     13 C                    -0.148934
     14 H                     0.099308
     15 H                     0.099056
     16 C                    -0.119332
     17 H                     0.093482
     18 H                     0.096038
     19 C                    -0.375131
     20 C                    -0.232331
     21 H                     0.122988
     22 H                     0.119699
     23 H                     0.109753
     24 C                    -0.197319
     25 H                     0.120550
     26 H                     0.116215
     27 H                     0.107650
     28 C                     0.124768
     29 H                     0.097325
     30 C                    -0.087759
     31 C                    -0.095207
     32 H                     0.104131
     33 C                    -0.070179
     34 H                     0.084356
     35 C                    -0.208646
     36 H                     0.106435
     37 H                     0.111356
     38 O                    -0.306769
     39 C                    -0.264175
     40 H                     0.122152
     41 H                     0.128311
     42 H                     0.130774
  ----------------------------------------
  Sum of atomic charges =     0.000000

 -----------------------------------------------------------------
                    Cartesian Multipole Moments
 -----------------------------------------------------------------
    Charge (ESU x 10^10)
                 0.0000
    Dipole Moment (Debye)
         X      -1.7493      Y      -2.3829      Z       3.0327
       Tot       4.2350
    Quadrupole Moments (Debye-Ang)
        XX    -107.0701     XY      -5.7103     YY    -116.6968
        XZ       1.8053     YZ       5.7332     ZZ    -114.0930
    Octopole Moments (Debye-Ang^2)
       XXX       3.3476    XXY     -11.4556    XYY     -14.6405
       YYY       5.4839    XXZ      -2.2704    XYZ      -1.0191
       YYZ       9.9920    XZZ       7.2575    YZZ      -3.3871
       ZZZ       3.9221
    Hexadecapole Moments (Debye-Ang^3)
      XXXX   -4907.6337   XXXY    -109.3719   XXYY   -1088.8170
      XYYY       7.6908   YYYY   -1445.2902   XXXZ     -28.8913
      XXYZ     -19.8090   XYYZ      18.3844   YYYZ       3.7249
      XXZZ    -968.8620   XYZZ      -4.6440   YYZZ    -400.1563
      XZZZ       9.9091   YZZZ      -1.5383   ZZZZ    -901.3408
 -----------------------------------------------------------------
 Calculating analytic gradient of the SCF energy
 Gradient of SCF Energy
            1           2           3           4           5           6
    1   0.0009950  -0.0005643  -0.0003934  -0.0002689   0.0006255  -0.0001911
    2   0.0015218  -0.0030449  -0.0008199   0.0009400  -0.0018161   0.0009583
    3   0.0000281   0.0003426  -0.0008066   0.0009258  -0.0016335   0.0013968
            7           8           9          10          11          12
    1   0.0012470  -0.0001433   0.0002034  -0.0013150   0.0005802   0.0003753
    2  -0.0009380  -0.0005292  -0.0003391   0.0011070  -0.0002509  -0.0002442
    3  -0.0002657  -0.0000340  -0.0001640   0.0000448   0.0000307  -0.0001315
           13          14          15          16          17          18
    1   0.0007067  -0.0000455   0.0003361  -0.0004376   0.0005055  -0.0000006
    2  -0.0003534   0.0001714  -0.0000541   0.0001878   0.0000658  -0.0000612
    3   0.0010176  -0.0005460  -0.0001088  -0.0009984   0.0003730   0.0000618
           19          20          21          22          23          24
    1   0.0007588   0.0004372  -0.0004249   0.0000266  -0.0004101   0.0003955
    2   0.0001062  -0.0000220   0.0004115   0.0003014   0.0002817   0.0008398
    3   0.0006304   0.0000749   0.0000436  -0.0002822  -0.0002972  -0.0002677
           25          26          27          28          29          30
    1   0.0007528  -0.0001270  -0.0001414  -0.0018716  -0.0006521   0.0002476
    2   0.0005774   0.0002397   0.0000226  -0.0001097   0.0007641  -0.0001893
    3   0.0005207   0.0002495   0.0005089   0.0021929   0.0000377  -0.0014200
           31          32          33          34          35          36
    1  -0.0013088   0.0002102   0.0007985  -0.0003060  -0.0005246   0.0002427
    2   0.0009847  -0.0001377  -0.0004657  -0.0001163   0.0004868  -0.0001351
    3   0.0004106  -0.0004484   0.0004429   0.0001423  -0.0001624  -0.0000016
           37          38          39          40          41          42
    1   0.0002095  -0.0000683  -0.0011334   0.0003994   0.0000773   0.0002007
    2  -0.0000264  -0.0003345   0.0000428   0.0000519  -0.0001823   0.0001126
    3  -0.0002988  -0.0015139   0.0010921  -0.0004105  -0.0002920  -0.0004874
 Max gradient component =       3.045E-03
 RMS gradient           =       7.047E-04
 Gradient time:  CPU 1508.03 s  wall 256.06 s
 Geometry Optimization Parameters
   NAtoms,    NIC,     NZ,  NCons,   NDum,   NFix, NCnnct, MaxDiis
       42     320      42       0       0       0       0       0

 Cartesian Hessian Update
 Hessian Updated using BFGS Update


** GEOMETRY OPTIMIZATION IN DELOCALIZED INTERNAL COORDINATES **
   Searching for a Minimum

   Optimization Cycle:   2

                       Coordinates (Angstroms)
     ATOM                X               Y               Z
      1  O         0.2467456048    1.5246184602   -1.7359882042
      2  C         0.0854319448    0.4034639656   -0.7373767998
      3  H         0.5377713344   -0.4940838968   -1.1821571668
      4  C        -1.3143633080    0.1470503012   -0.2919039286
      5  C        -2.0956296903    1.1205086257    0.2479160915
      6  C        -1.7021046212    2.5706259566    0.3603301312
      7  H        -0.8210734177    2.8287451065   -0.2386360924
      8  H        -2.5420496693    3.2022954437    0.0177652994
      9  H        -1.5229124994    2.8442589551    1.4169231860
     10  C        -3.4658601739    0.8295531812    0.8129925902
     11  H        -3.5921517213    1.4195149017    1.7398511758
     12  H        -4.2343892874    1.2166736290    0.1121699973
     13  C        -3.7010572270   -0.6548449701    1.0772101380
     14  H        -4.7611127818   -0.8386696576    1.3168317463
     15  H        -3.1146368052   -0.9773152384    1.9577202356
     16  C        -3.2827841915   -1.4478302661   -0.1560843650
     17  H        -3.5155803162   -2.5211667155   -0.0440153980
     18  H        -3.8619794189   -1.0835326339   -1.0264565807
     19  C        -1.7779036153   -1.3038937723   -0.4672893806
     20  C        -0.9609390733   -2.2217472895    0.4656181483
     21  H        -1.1545888084   -1.9836075134    1.5253008284
     22  H         0.1240084783   -2.1155695731    0.2885039260
     23  H        -1.2266962011   -3.2792350558    0.2929117879
     24  C        -1.5664305931   -1.7545477807   -1.9288193049
     25  H        -0.5012223776   -1.8184628197   -2.2024175216
     26  H        -2.0606149518   -1.0571029512   -2.6264877199
     27  H        -2.0050670980   -2.7580080530   -2.0694512228
     28  C         1.1214641350    1.0882043270    0.1783179928
     29  H         0.6469323512    1.7138242149    0.9531081433
     30  C         2.2255872447    0.2658256570    0.7504265836
     31  C         3.3157496035   -0.0225181314   -0.0089539938
     32  H         3.3383164521    0.3913844831   -1.0229830455
     33  C         4.4706298230   -0.8062169954    0.3855249565
     34  H         4.4886807282   -1.2194602475    1.3995782993
     35  C         5.5175406924   -1.0455771019   -0.4357655933
     36  H         6.3782137847   -1.6384923864   -0.1164783274
     37  H         5.5409828713   -0.6536465509   -1.4580475101
     38  O         1.5515291212    1.9480465722   -0.9682017244
     39  C         1.9891829164   -0.1845440967    2.1640384222
     40  H         2.7818723401   -0.8471637393    2.5375146170
     41  H         1.0278436452   -0.7244657865    2.2537145462
     42  H         1.9259302102    0.6858945007    2.8429225072
   Point Group: c1    Number of degrees of freedom:   120


   Energy is   -773.567901584

 Hessian Updated using BFGS Update

107 Hessian modes will be used to form the next step
  Hessian Eigenvalues:
     0.002002    0.002064    0.003009    0.003904    0.007154    0.007383
     0.007652    0.008638    0.008933    0.010649    0.010869    0.013870
     0.015027    0.015711    0.021783    0.022286    0.028353    0.029419
     0.029442    0.029467    0.031742    0.036331    0.037572    0.042829
     0.047222    0.047660    0.048849    0.052046    0.052299    0.052812
     0.053331    0.054786    0.055801    0.058798    0.059132    0.067716
     0.068771    0.069832    0.072603    0.074618    0.077697    0.078274
     0.083700    0.084663    0.096113    0.096648    0.098415    0.120711
     0.121659    0.130772    0.133415    0.159035    0.159981    0.160401
     0.161318    0.189519    0.208093    0.219816    0.220083    0.229820
     0.244878    0.249056    0.249986    0.249997    0.250179    0.265027
     0.265257    0.268646    0.272594    0.278810    0.280934    0.289685
     0.289874    0.299445    0.301521    0.308585    0.311990    0.320474
     0.326296    0.333946    0.336597    0.336989    0.337058    0.337535
     0.338024    0.338326    0.338737    0.338962    0.339763    0.340033
     0.340162    0.340839    0.341422    0.341557    0.342886    0.345336
     0.346359    0.348808    0.350045    0.350274    0.351372    0.353659
     0.367212    0.375137    0.517227    0.538112    0.557015

 Minimum Search - Taking Simple RFO Step
 Searching for Lamda that Minimizes Along All modes
 Value Taken    Lamda =  -0.00066334
 Step Taken.  Stepsize is  0.173093

                             Maximum     Tolerance    Cnvgd?
         Gradient           0.005231      0.000300      NO
         Displacement       0.063170      0.001200      NO
         Energy change     -0.001741      0.000001      NO


 New Cartesian Coordinates Obtained by Inverse Iteration

 Displacement from previous Coordinates is:  0.685476
 ----------------------------------------------------------------
             Standard Nuclear Orientation (Angstroms)
    I     Atom           X                Y                Z
 ----------------------------------------------------------------
    1      O       0.2695858806     1.5717322864    -1.6861880781
    2      C       0.0960458604     0.4367313892    -0.7110469145
    3      H       0.5539279159    -0.4536476174    -1.1649661780
    4      C      -1.3116869098     0.1685867928    -0.2896949235
    5      C      -2.1153170084     1.1394017495     0.2297713144
    6      C      -1.7657629119     2.6025548348     0.3030194508
    7      H      -0.9007556737     2.8819641827    -0.3095507547
    8      H      -2.6289819181     3.2002076394    -0.0465480253
    9      H      -1.5903576816     2.9090915033     1.3524218008
   10      C      -3.4835172922     0.8318446014     0.7882920324
   11      H      -3.6324107290     1.4376632972     1.7028616227
   12      H      -4.2549207780     1.1928797127     0.0746234170
   13      C      -3.6963462123    -0.6494834472     1.0768183699
   14      H      -4.7542640124    -0.8468445734     1.3193180494
   15      H      -3.1077312886    -0.9488945721     1.9651363211
   16      C      -3.2630814484    -1.4516323114    -0.1428266945
   17      H      -3.4868372002    -2.5271918483    -0.0234062003
   18      H      -3.8436263636    -1.1013902872    -1.0195110823
   19      C      -1.7608392253    -1.2922716594    -0.4558831349
   20      C      -0.9327905069    -2.1952345605     0.4819367836
   21      H      -1.1272344841    -1.9561950315     1.5420949411
   22      H       0.1519588676    -2.0759778793     0.3053808520
   23      H      -1.1814820874    -3.2590992974     0.3156763060
   24      C      -1.5564195098    -1.7612885753    -1.9131628281
   25      H      -0.4935118537    -1.8459853330    -2.1909916343
   26      H      -2.0422235763    -1.0652029248    -2.6197039545
   27      H      -2.0091881122    -2.7608546543    -2.0448602413
   28      C       1.1339266579     1.0900910824     0.2249575442
   29      H       0.6612777939     1.6849148424     1.0253105463
   30      C       2.2373880870     0.2478962318     0.7697125551
   31      C       3.3213301834    -0.0304770953    -0.0044362255
   32      H       3.3396819036     0.4101716468    -1.0078806097
   33      C       4.4707863150    -0.8323729769     0.3631935246
   34      H       4.4951599807    -1.2647215812     1.3700040705
   35      C       5.5091890132    -1.0666087140    -0.4713150392
   36      H       6.3675820612    -1.6735741456    -0.1700067855
   37      H       5.5262772440    -0.6549265424    -1.4868597650
   38      O       1.5587626669     1.9921168701    -0.8870601859
   39      C       2.0039138568    -0.2424617003     2.1690255914
   40      H       2.7868240402    -0.9300070803     2.5200101144
   41      H       1.0331628843    -0.7693465298     2.2484449809
   42      H       1.9557710051     0.6066273337     2.8775665370
 ----------------------------------------------------------------
 Molecular Point Group                 C1    NOp =  1
 Largest Abelian Subgroup              C1    NOp =  1
 Nuclear Repulsion Energy =  1392.9911911818 hartrees
 There are       68 alpha and       68 beta electrons
 Applying Cartesian multipole field
    Component          Value
    ---------          -----
     (2,0,0)        1.00000E-12
     (0,2,0)        2.00000E-11
     (0,0,2)       -3.00000E-11
 Nucleus-field energy     =     0.0000000062 hartrees
 Requested basis set is VDZ
 There are 138 shells and 210 basis functions
 A cutoff of  1.0D-11 yielded   7938 shell pairs
 There are     18898 function pairs
 Smallest overlap matrix eigenvalue = 8.01E-04
 Guess MOs from SCF MO coefficient file

 -----------------------------------------------------------------------
  General SCF calculation program by
  Eric Jon Sundstrom, Paul Horn, Yuezhi Mao, Dmitri Zuev, Alec White,
  David Stuck, Shaama M.S., Shane Yost, Joonho Lee, David Small,
  Daniel Levine, Susi Lehtola, Hugh Burton, Evgeny Epifanovsky
 -----------------------------------------------------------------------
 Exchange:  B97M-V      Correlation:  B97M-V
 Using SG-2 standard quadrature grid
 Nonlocal Correlation:  rVV10 with C = 0.0100 and b = 6.00 and scale = 1.00000
 Grid used for NLC:  SG-1 standard quadrature
 using 8 threads for integral computing
 -------------------------------------------------------
 OpenMP Integral computing Module                
 Release: version 1.0, May 2013, Q-Chem Inc. Pittsburgh 
 -------------------------------------------------------
 -------------------------------------------------------
 OpenMP BLAS3 based DFT computing Module                
 Release: version 1.0, May 2013, Q-Chem Inc. Pittsburgh 
 -------------------------------------------------------
 -------------------------------------------------------
 OpenMP BLAS3 based DFT computing Module                
 Release: version 1.0, May 2013, Q-Chem Inc. Pittsburgh 
 -------------------------------------------------------
 -------------------------------------------------------
 OpenMP BLAS3 based DFT computing Module                
 Release: version 1.0, May 2013, Q-Chem Inc. Pittsburgh 
 -------------------------------------------------------
 Nonlocal correlation = 0.496707749541
 A restricted SCF calculation will be
 performed using DIIS
 SCF converges when DIIS error is below 1.0e-08
 ---------------------------------------
  Cycle       Energy         DIIS error
 ---------------------------------------
 Nonlocal correlation = 4.966663406636e-01
    1    -773.5645103001      5.32e-04  
 Nonlocal correlation = 4.966890500295e-01
    2    -773.5678850996      4.66e-05  
 Nonlocal correlation = 4.966775538120e-01
    3    -773.5678809053      5.71e-05  
 Nonlocal correlation = 4.966771515854e-01
    4    -773.5678995494      1.93e-05  
 Nonlocal correlation = 4.966777308030e-01
    5    -773.5679007399      1.20e-05  
 Nonlocal correlation = 4.966779227045e-01
    6    -773.5679013994      2.63e-06  
 Nonlocal correlation = 4.966778801284e-01
    7    -773.5679014345      1.25e-06  
 Nonlocal correlation = 4.966778235254e-01
    8    -773.5679014441      2.78e-07  
 Nonlocal correlation = 4.966778402023e-01
    9    -773.5679014445      1.38e-07  
 Nonlocal correlation = 4.966778425920e-01
   10    -773.5679014446      5.52e-08  
 Nonlocal correlation = 4.966778436276e-01
   11    -773.5679014446      1.20e-08  
   12    -773.5679014446      5.64e-09  Convergence criterion met
 ---------------------------------------
 SCF time:   CPU 6861.84s  wall 859.00s 
 SCF   energy in the final basis set =     -773.5679014446
 Total energy in the final basis set =     -773.5679014446
 
 --------------------------------------------------------------
 
                    Orbital Energies (a.u.)
 --------------------------------------------------------------
 
 Alpha MOs
 -- Occupied --
-19.202 -19.199 -10.256 -10.254 -10.217 -10.212 -10.212 -10.200
-10.200 -10.195 -10.195 -10.194 -10.189 -10.189 -10.187 -10.183
-10.178 -10.177  -1.073  -0.876  -0.840  -0.807  -0.776  -0.763
 -0.746  -0.705  -0.671  -0.665  -0.662  -0.656  -0.604  -0.572
 -0.559  -0.541  -0.507  -0.495  -0.478  -0.463  -0.460  -0.440
 -0.432  -0.429  -0.414  -0.410  -0.400  -0.399  -0.395  -0.384
 -0.382  -0.378  -0.373  -0.365  -0.357  -0.350  -0.341  -0.338
 -0.333  -0.329  -0.324  -0.315  -0.305  -0.302  -0.301  -0.294
 -0.278  -0.228  -0.214  -0.203
 -- Virtual --
 -0.080  -0.056  -0.031   0.022   0.033   0.043   0.047   0.057
  0.062   0.072   0.074   0.078   0.081   0.092   0.103   0.104
  0.110   0.121   0.123   0.134   0.138   0.141   0.144   0.147
  0.151   0.156   0.162   0.171   0.175   0.181   0.189   0.200
  0.203   0.219   0.225   0.232   0.246   0.250   0.263   0.277
  0.303   0.308   0.335   0.339   0.360   0.386   0.400   0.410
  0.423   0.430   0.442   0.449   0.453   0.466   0.470   0.483
  0.499   0.499   0.510   0.514   0.527   0.531   0.548   0.553
  0.577   0.577   0.588   0.596   0.601   0.613   0.615   0.620
  0.630   0.638   0.639   0.646   0.655   0.659   0.666   0.669
  0.672   0.678   0.683   0.686   0.688   0.692   0.693   0.701
  0.704   0.707   0.713   0.714   0.721   0.724   0.726   0.732
  0.735   0.741   0.749   0.750   0.764   0.774   0.780   0.789
  0.803   0.807   0.817   0.835   0.845   0.859   0.868   0.877
  0.905   0.913   0.928   0.963   0.975   0.980   0.992   1.025
  1.045   1.050   1.085   1.113   1.123   1.150   1.156   1.168
  1.188   1.202   1.213   1.249   1.294   1.308   1.330   1.340
  1.357   1.396   1.456   1.502   1.604   1.889
 --------------------------------------------------------------
 
          Ground-State Mulliken Net Atomic Charges

     Atom                 Charge (a.u.)
  ----------------------------------------
      1 O                    -0.294845
      2 C                     0.082107
      3 H                     0.100232
      4 C                     0.093611
      5 C                    -0.160676
      6 C                    -0.267957
      7 H                     0.173900
      8 H                     0.118783
      9 H                     0.118322
     10 C                    -0.176522
     11 H                     0.105814
     12 H                     0.114865
     13 C                    -0.146663
     14 H                     0.099300
     15 H                     0.098981
     16 C                    -0.122985
     17 H                     0.094051
     18 H                     0.096115
     19 C                    -0.369095
     20 C                    -0.236862
     21 H                     0.124265
     22 H                     0.121394
     23 H                     0.109580
     24 C                    -0.200023
     25 H                     0.120237
     26 H                     0.116300
     27 H                     0.108217
     28 C                     0.130400
     29 H                     0.095062
     30 C                    -0.086962
     31 C                    -0.094759
     32 H                     0.104173
     33 C                    -0.071102
     34 H                     0.084841
     35 C                    -0.208664
     36 H                     0.106911
     37 H                     0.111509
     38 O                    -0.307041
     39 C                    -0.267416
     40 H                     0.122678
     41 H                     0.128702
     42 H                     0.131223
  ----------------------------------------
  Sum of atomic charges =     0.000000

 -----------------------------------------------------------------
                    Cartesian Multipole Moments
 -----------------------------------------------------------------
    Charge (ESU x 10^10)
                -0.0000
    Dipole Moment (Debye)
         X      -1.7420      Y      -2.4581      Z       2.9219
       Tot       4.1969
    Quadrupole Moments (Debye-Ang)
        XX    -107.0237     XY      -5.9501     YY    -116.9379
        XZ       1.7621     YZ       5.4470     ZZ    -113.7801
    Octopole Moments (Debye-Ang^2)
       XXX       2.5045    XXY     -12.2849    XYY     -15.0894
       YYY       3.0998    XXZ      -3.3517    XYZ      -1.2145
       YYZ       9.1924    XZZ       7.2036    YZZ      -3.3292
       ZZZ       1.2196
    Hexadecapole Moments (Debye-Ang^3)
      XXXX   -4920.0446   XXXY     -95.2131   XXYY   -1091.7190
      XYYY      21.3444   YYYY   -1467.6567   XXXZ     -31.6759
      XXYZ     -18.5759   XYYZ      18.8885   YYYZ       7.9856
      XXZZ    -968.4346   XYZZ       1.5012   YYZZ    -400.3703
      XZZZ       9.5198   YZZZ       2.4400   ZZZZ    -884.9224
 -----------------------------------------------------------------
 Calculating analytic gradient of the SCF energy
 Gradient of SCF Energy
            1           2           3           4           5           6
    1  -0.0001761   0.0003761   0.0005065   0.0005088  -0.0002359  -0.0008082
    2   0.0002080   0.0006072  -0.0000272  -0.0003076  -0.0001177  -0.0003017
    3  -0.0002682   0.0022408   0.0003379  -0.0004385   0.0013039  -0.0006395
            7           8           9          10          11          12
    1  -0.0002695  -0.0003033   0.0000112   0.0004952   0.0000294  -0.0002173
    2   0.0007293   0.0002772  -0.0002179  -0.0001163   0.0000757   0.0000533
    3  -0.0008632  -0.0002722   0.0004496  -0.0002190   0.0004539  -0.0004078
           13          14          15          16          17          18
    1   0.0008856  -0.0005053   0.0003509   0.0009264  -0.0000667  -0.0001137
    2   0.0003648  -0.0000361  -0.0001452   0.0003520  -0.0005771   0.0002450
    3  -0.0005911  -0.0001746   0.0003741   0.0000587   0.0002633  -0.0004395
           19          20          21          22          23          24
    1  -0.0002596  -0.0004529  -0.0001295   0.0007551  -0.0002481  -0.0004706
    2   0.0002637   0.0007234   0.0003128   0.0004048  -0.0005314  -0.0001627
    3  -0.0005303  -0.0004129   0.0005230  -0.0001182  -0.0002332   0.0008400
           25          26          27          28          29          30
    1   0.0002226  -0.0003004  -0.0003329   0.0007187   0.0005240  -0.0008373
    2  -0.0001192   0.0005653  -0.0006052  -0.0020213  -0.0004026   0.0005813
    3   0.0000176  -0.0002909  -0.0000466   0.0000430   0.0000435   0.0000242
           31          32          33          34          35          36
    1   0.0004924   0.0000548  -0.0005478  -0.0001451  -0.0002252   0.0007244
    2  -0.0001386  -0.0000009   0.0003089  -0.0002999   0.0002372  -0.0004528
    3   0.0003471  -0.0006938  -0.0000595   0.0006393  -0.0000335   0.0002264
           37          38          39          40          41          42
    1   0.0000108  -0.0005349  -0.0003028   0.0006779  -0.0007527  -0.0000314
    2   0.0002575   0.0003145   0.0000947  -0.0003499  -0.0005476   0.0005077
    3  -0.0007770   0.0000370  -0.0006755   0.0001119  -0.0002216   0.0000688
 Max gradient component =       2.241E-03
 RMS gradient           =       5.085E-04
 Gradient time:  CPU 1508.72 s  wall 256.05 s
 Geometry Optimization Parameters
   NAtoms,    NIC,     NZ,  NCons,   NDum,   NFix, NCnnct, MaxDiis
       42     320      42       0       0       0       0       0

 Cartesian Hessian Update
 Hessian Updated using BFGS Update


** GEOMETRY OPTIMIZATION IN DELOCALIZED INTERNAL COORDINATES **
   Searching for a Minimum

   Optimization Cycle:   3

                       Coordinates (Angstroms)
     ATOM                X               Y               Z
      1  O         0.2695858806    1.5717322864   -1.6861880781
      2  C         0.0960458604    0.4367313892   -0.7110469145
      3  H         0.5539279159   -0.4536476174   -1.1649661780
      4  C        -1.3116869098    0.1685867928   -0.2896949235
      5  C        -2.1153170084    1.1394017495    0.2297713144
      6  C        -1.7657629119    2.6025548348    0.3030194508
      7  H        -0.9007556737    2.8819641827   -0.3095507547
      8  H        -2.6289819181    3.2002076394   -0.0465480253
      9  H        -1.5903576816    2.9090915033    1.3524218008
     10  C        -3.4835172922    0.8318446014    0.7882920324
     11  H        -3.6324107290    1.4376632972    1.7028616227
     12  H        -4.2549207780    1.1928797127    0.0746234170
     13  C        -3.6963462123   -0.6494834472    1.0768183699
     14  H        -4.7542640124   -0.8468445734    1.3193180494
     15  H        -3.1077312886   -0.9488945721    1.9651363211
     16  C        -3.2630814484   -1.4516323114   -0.1428266945
     17  H        -3.4868372002   -2.5271918483   -0.0234062003
     18  H        -3.8436263636   -1.1013902872   -1.0195110823
     19  C        -1.7608392253   -1.2922716594   -0.4558831349
     20  C        -0.9327905069   -2.1952345605    0.4819367836
     21  H        -1.1272344841   -1.9561950315    1.5420949411
     22  H         0.1519588676   -2.0759778793    0.3053808520
     23  H        -1.1814820874   -3.2590992974    0.3156763060
     24  C        -1.5564195098   -1.7612885753   -1.9131628281
     25  H        -0.4935118537   -1.8459853330   -2.1909916343
     26  H        -2.0422235763   -1.0652029248   -2.6197039545
     27  H        -2.0091881122   -2.7608546543   -2.0448602413
     28  C         1.1339266579    1.0900910824    0.2249575442
     29  H         0.6612777939    1.6849148424    1.0253105463
     30  C         2.2373880870    0.2478962318    0.7697125551
     31  C         3.3213301834   -0.0304770953   -0.0044362255
     32  H         3.3396819036    0.4101716468   -1.0078806097
     33  C         4.4707863150   -0.8323729769    0.3631935246
     34  H         4.4951599807   -1.2647215812    1.3700040705
     35  C         5.5091890132   -1.0666087140   -0.4713150392
     36  H         6.3675820612   -1.6735741456   -0.1700067855
     37  H         5.5262772440   -0.6549265424   -1.4868597650
     38  O         1.5587626669    1.9921168701   -0.8870601859
     39  C         2.0039138568   -0.2424617003    2.1690255914
     40  H         2.7868240402   -0.9300070803    2.5200101144
     41  H         1.0331628843   -0.7693465298    2.2484449809
     42  H         1.9557710051    0.6066273337    2.8775665370
   Point Group: c1    Number of degrees of freedom:   120


   Energy is   -773.567901445

 Hessian Updated using BFGS Update

108 Hessian modes will be used to form the next step
  Hessian Eigenvalues:
     0.002008    0.002069    0.003192    0.003954    0.007209    0.007305
     0.007555    0.008594    0.010380    0.010695    0.010968    0.013981
     0.014969    0.021296    0.021782    0.022293    0.028375    0.029287
     0.029443    0.029447    0.033655    0.037000    0.038666    0.042206
     0.047135    0.048718    0.048838    0.052154    0.052566    0.052782
     0.053486    0.054765    0.055798    0.058699    0.059370    0.067597
     0.069774    0.069844    0.072472    0.074545    0.077699    0.078337
     0.083727    0.085955    0.096110    0.096760    0.099088    0.120702
     0.120867    0.132866    0.139746    0.153406    0.159979    0.159994
     0.160256    0.165841    0.189053    0.208455    0.219568    0.220007
     0.229498    0.244457    0.246597    0.249974    0.249988    0.258760
     0.264595    0.265040    0.271308    0.273037    0.278669    0.282316
     0.285961    0.291318    0.297446    0.301223    0.308683    0.311789
     0.321089    0.324042    0.330722    0.334640    0.336809    0.337025
     0.337412    0.337874    0.338141    0.338552    0.338925    0.339543
     0.339972    0.340159    0.340621    0.341188    0.341487    0.342499
     0.345709    0.346368    0.349232    0.349780    0.350254    0.351106
     0.352407    0.354566    0.374349    0.514305    0.538286    0.556512

 Minimum Search - Taking Simple RFO Step
 Searching for Lamda that Minimizes Along All modes
 Value Taken    Lamda =  -0.00056597
 Step Taken.  Stepsize is  0.160441

                             Maximum     Tolerance    Cnvgd?
         Gradient           0.003329      0.000300      NO
         Displacement       0.104957      0.001200      NO
         Energy change      0.000000      0.000001     YES


 New Cartesian Coordinates Obtained by Inverse Iteration

 Displacement from previous Coordinates is:  0.907914
 ----------------------------------------------------------------
             Standard Nuclear Orientation (Angstroms)
    I     Atom           X                Y                Z
 ----------------------------------------------------------------
    1      O       0.2525227293     1.5443712036    -1.7258603863
    2      C       0.0960555601     0.4272613357    -0.7283556743
    3      H       0.5575999341    -0.4655701702    -1.1716577968
    4      C      -1.3079467479     0.1522107034    -0.2905730323
    5      C      -2.1004462091     1.1181538892     0.2560650280
    6      C      -1.7330171509     2.5749065329     0.3683716085
    7      H      -0.8609091742     2.8591720519    -0.2296905558
    8      H      -2.5854713415     3.1930426193     0.0297049324
    9      H      -1.5608412044     2.8541147150     1.4255365076
   10      C      -3.4684057164     0.8098440476     0.8180546942
   11      H      -3.6066860263     1.3968036228     1.7459806919
   12      H      -4.2412887682     1.1951878536     0.1195182543
   13      C      -3.6970115285    -0.6754058292     1.0748582631
   14      H      -4.7548707057    -0.8673658051     1.3197973468
   15      H      -3.1085580846    -1.0000827328     1.9534735575
   16      C      -3.2758117403    -1.4546113099    -0.1641652405
   17      H      -3.5135391442    -2.5291858306    -0.0713875333
   18      H      -3.8552613413    -1.0768733210    -1.0293512404
   19      C      -1.7714483328    -1.3050051745    -0.4811346754
   20      C      -0.9495106575    -2.2385655264     0.4348492105
   21      H      -1.1314012885    -2.0188052802     1.5005283978
   22      H       0.1349716113    -2.1342494100     0.2532417950
   23      H      -1.2137046759    -3.2952348702     0.2516225878
   24      C      -1.5801484162    -1.7511191708    -1.9492987250
   25      H      -0.5213393070    -1.8447343351    -2.2369510122
   26      H      -2.0612695751    -1.0388440168    -2.6415063707
   27      H      -2.0448987856    -2.7420750264    -2.0969289333
   28      C       1.1383060526     1.1125443540     0.1844608152
   29      H       0.6676194714     1.7391625266     0.9608551632
   30      C       2.2431038591     0.2919442536     0.7643082279
   31      C       3.3165359067    -0.0362030403    -0.0047597694
   32      H       3.3260007175     0.3504733955    -1.0293408583
   33      C       4.4658039907    -0.8233546796     0.3939575531
   34      H       4.5014361712    -1.1965483662     1.4228944358
   35      C       5.4922064309    -1.1130087330    -0.4370531393
   36      H       6.3493181691    -1.7070660039    -0.1113214139
   37      H       5.4996081505    -0.7604854755    -1.4736391941
   38      O       1.5619545040     1.9706176935    -0.9615478836
   39      C       2.0248763720    -0.1169731746     2.1927391089
   40      H       2.8002123561    -0.7973756450     2.5706926204
   41      H       1.0479001091    -0.6210734100     2.3172266430
   42      H       2.0010192600     0.7687905974     2.8554634623
 ----------------------------------------------------------------
 Molecular Point Group                 C1    NOp =  1
 Largest Abelian Subgroup              C1    NOp =  1
 Nuclear Repulsion Energy =  1391.0130367484 hartrees
 There are       68 alpha and       68 beta electrons
 Applying Cartesian multipole field
    Component          Value
    ---------          -----
     (2,0,0)        1.00000E-12
     (0,2,0)        2.00000E-11
     (0,0,2)       -3.00000E-11
 Nucleus-field energy     =     0.0000000056 hartrees
 Requested basis set is VDZ
 There are 138 shells and 210 basis functions
 A cutoff of  1.0D-11 yielded   7931 shell pairs
 There are     18885 function pairs
 Smallest overlap matrix eigenvalue = 8.01E-04
 Guess MOs from SCF MO coefficient file

 -----------------------------------------------------------------------
  General SCF calculation program by
  Eric Jon Sundstrom, Paul Horn, Yuezhi Mao, Dmitri Zuev, Alec White,
  David Stuck, Shaama M.S., Shane Yost, Joonho Lee, David Small,
  Daniel Levine, Susi Lehtola, Hugh Burton, Evgeny Epifanovsky
 -----------------------------------------------------------------------
 Exchange:  B97M-V      Correlation:  B97M-V
 Using SG-2 standard quadrature grid
 Nonlocal Correlation:  rVV10 with C = 0.0100 and b = 6.00 and scale = 1.00000
 Grid used for NLC:  SG-1 standard quadrature
 using 8 threads for integral computing
 -------------------------------------------------------
 OpenMP Integral computing Module                
 Release: version 1.0, May 2013, Q-Chem Inc. Pittsburgh 
 -------------------------------------------------------
 -------------------------------------------------------
 OpenMP BLAS3 based DFT computing Module                
 Release: version 1.0, May 2013, Q-Chem Inc. Pittsburgh 
 -------------------------------------------------------
 -------------------------------------------------------
 OpenMP BLAS3 based DFT computing Module                
 Release: version 1.0, May 2013, Q-Chem Inc. Pittsburgh 
 -------------------------------------------------------
 -------------------------------------------------------
 OpenMP BLAS3 based DFT computing Module                
 Release: version 1.0, May 2013, Q-Chem Inc. Pittsburgh 
 -------------------------------------------------------
 Nonlocal correlation = 0.496953037732
 A restricted SCF calculation will be
 performed using DIIS
 SCF converges when DIIS error is below 1.0e-08
 ---------------------------------------
  Cycle       Energy         DIIS error
 ---------------------------------------
 Nonlocal correlation = 4.969717645356e-01
    1    -773.5614543776      7.14e-04  
 Nonlocal correlation = 4.969509045234e-01
    2    -773.5680159157      6.06e-05  
 Nonlocal correlation = 4.969642358970e-01
    3    -773.5679631219      1.16e-04  
 Nonlocal correlation = 4.969643166477e-01
    4    -773.5680376312      2.76e-05  
 Nonlocal correlation = 4.969632627491e-01
    5    -773.5680407880      1.56e-05  
 Nonlocal correlation = 4.969634187280e-01
    6    -773.5680418606      5.67e-06  
 Nonlocal correlation = 4.969634370441e-01
    7    -773.5680420243      1.69e-06  
 Nonlocal correlation = 4.969634682392e-01
    8    -773.5680420399      6.65e-07  
 Nonlocal correlation = 4.969634491434e-01
    9    -773.5680420425      2.12e-07  
 Nonlocal correlation = 4.969634541738e-01
   10    -773.5680420428      8.22e-08  
 Nonlocal correlation = 4.969634525099e-01
   11    -773.5680420428      1.27e-08  
   12    -773.5680420428      6.42e-09  Convergence criterion met
 ---------------------------------------
 SCF time:   CPU 6866.28s  wall 860.00s 
 SCF   energy in the final basis set =     -773.5680420428
 Total energy in the final basis set =     -773.5680420428
 
 --------------------------------------------------------------
 
                    Orbital Energies (a.u.)
 --------------------------------------------------------------
 
 Alpha MOs
 -- Occupied --
-19.202 -19.199 -10.255 -10.254 -10.218 -10.213 -10.212 -10.201
-10.200 -10.195 -10.195 -10.194 -10.189 -10.188 -10.187 -10.182
-10.179 -10.178  -1.072  -0.876  -0.839  -0.807  -0.776  -0.763
 -0.746  -0.705  -0.671  -0.664  -0.663  -0.656  -0.604  -0.572
 -0.559  -0.541  -0.507  -0.495  -0.478  -0.463  -0.459  -0.440
 -0.432  -0.429  -0.413  -0.410  -0.400  -0.399  -0.395  -0.384
 -0.382  -0.379  -0.373  -0.365  -0.357  -0.350  -0.340  -0.338
 -0.333  -0.330  -0.324  -0.316  -0.305  -0.301  -0.301  -0.294
 -0.278  -0.229  -0.215  -0.203
 -- Virtual --
 -0.080  -0.056  -0.031   0.022   0.034   0.043   0.047   0.058
  0.062   0.072   0.075   0.078   0.081   0.092   0.102   0.104
  0.110   0.121   0.123   0.132   0.138   0.140   0.143   0.147
  0.150   0.156   0.162   0.171   0.176   0.179   0.188   0.199
  0.204   0.218   0.224   0.233   0.245   0.249   0.263   0.276
  0.302   0.306   0.334   0.340   0.359   0.385   0.398   0.408
  0.424   0.429   0.441   0.447   0.453   0.465   0.470   0.483
  0.499   0.501   0.508   0.512   0.526   0.531   0.547   0.553
  0.574   0.579   0.588   0.597   0.603   0.613   0.614   0.620
  0.631   0.636   0.639   0.648   0.655   0.658   0.666   0.669
  0.673   0.680   0.683   0.685   0.688   0.693   0.694   0.700
  0.704   0.707   0.714   0.714   0.720   0.725   0.726   0.732
  0.735   0.741   0.748   0.752   0.764   0.774   0.780   0.786
  0.802   0.807   0.814   0.834   0.845   0.859   0.862   0.872
  0.906   0.915   0.929   0.961   0.976   0.977   0.988   1.021
  1.044   1.049   1.083   1.110   1.122   1.149   1.155   1.168
  1.187   1.198   1.212   1.247   1.290   1.312   1.325   1.337
  1.358   1.394   1.450   1.508   1.604   1.884
 --------------------------------------------------------------
 
          Ground-State Mulliken Net Atomic Charges

     Atom                 Charge (a.u.)
  ----------------------------------------
      1 O                    -0.295140
      2 C                     0.085854
      3 H                     0.099404
      4 C                     0.093346
      5 C                    -0.161119
      6 C                    -0.267282
      7 H                     0.172781
      8 H                     0.119609
      9 H                     0.119232
     10 C                    -0.177091
     11 H                     0.105491
     12 H                     0.115105
     13 C                    -0.145792
     14 H                     0.099345
     15 H                     0.098651
     16 C                    -0.123794
     17 H                     0.094020
     18 H                     0.095873
     19 C                    -0.365696
     20 C                    -0.232028
     21 H                     0.120745
     22 H                     0.117881
     23 H                     0.109428
     24 C                    -0.200233
     25 H                     0.119536
     26 H                     0.116247
     27 H                     0.107930
     28 C                     0.125493
     29 H                     0.095113
     30 C                    -0.082918
     31 C                    -0.096266
     32 H                     0.103203
     33 C                    -0.070924
     34 H                     0.084529
     35 C                    -0.207685
     36 H                     0.106584
     37 H                     0.111086
     38 O                    -0.307020
     39 C                    -0.264973
     40 H                     0.122328
     41 H                     0.127485
     42 H                     0.131660
  ----------------------------------------
  Sum of atomic charges =     0.000000

 -----------------------------------------------------------------
                    Cartesian Multipole Moments
 -----------------------------------------------------------------
    Charge (ESU x 10^10)
                 0.0000
    Dipole Moment (Debye)
         X      -1.7347      Y      -2.3645      Z       3.0487
       Tot       4.2302
    Quadrupole Moments (Debye-Ang)
        XX    -106.9383     XY      -5.8631     YY    -116.7322
        XZ       1.9333     YZ       5.9663     ZZ    -113.8977
    Octopole Moments (Debye-Ang^2)
       XXX       2.1004    XXY     -12.3751    XYY     -15.1464
       YYY       5.1514    XXZ      -1.3602    XYZ      -0.4457
       YYZ       9.9045    XZZ       7.6295    YZZ      -3.7424
       ZZZ       3.5969
    Hexadecapole Moments (Debye-Ang^3)
      XXXX   -4914.3461   XXXY    -111.4930   XXYY   -1090.1386
      XYYY       9.5396   YYYY   -1464.1760   XXXZ     -32.4193
      XXYZ     -18.8954   XYYZ      16.1600   YYYZ      -1.7880
      XXZZ    -968.4268   XYZZ      -4.2322   YYZZ    -404.4661
      XZZZ       3.6449   YZZZ      -8.0245   ZZZZ    -909.3716
 -----------------------------------------------------------------
 Calculating analytic gradient of the SCF energy
 Gradient of SCF Energy
            1           2           3           4           5           6
    1   0.0006236   0.0005789  -0.0000235   0.0001783  -0.0003817   0.0001578
    2  -0.0006610   0.0002461   0.0008201   0.0002050   0.0008256   0.0001248
    3  -0.0001104  -0.0002089   0.0000420  -0.0000187   0.0003745  -0.0001653
            7           8           9          10          11          12
    1  -0.0002862  -0.0001021  -0.0000732   0.0003427  -0.0001212  -0.0001740
    2   0.0000967   0.0001866   0.0000830  -0.0003957   0.0000348   0.0000103
    3   0.0002861   0.0000719   0.0002383  -0.0001705   0.0001092   0.0000202
           13          14          15          16          17          18
    1  -0.0001734  -0.0001511  -0.0000541   0.0004145  -0.0002995   0.0000100
    2   0.0001554  -0.0001162   0.0000060  -0.0002807  -0.0002046   0.0001067
    3  -0.0003313   0.0001237   0.0000310   0.0002529  -0.0000486   0.0000090
           19          20          21          22          23          24
[...]
       XXX       2.0894    XXY     -12.8799    XYY     -14.3572
       YYY       3.0808    XXZ      -1.8523    XYZ      -0.2857
       YYZ      10.2730    XZZ       8.0005    YZZ      -3.8731
       ZZZ       2.8732
    Hexadecapole Moments (Debye-Ang^3)
      XXXX   -4865.7328   XXXY     -95.5843   XXYY   -1080.1325
      XYYY      23.8477   YYYY   -1478.5903   XXXZ     -26.8619
      XXYZ     -17.1191   XYYZ      18.9754   YYYZ       1.1487
      XXZZ    -957.7775   XYZZ       1.6636   YYZZ    -405.5952
      XZZZ      10.2390   YZZZ      -5.0722   ZZZZ    -900.2581
 -----------------------------------------------------------------
 Calculating analytic gradient of the SCF energy
 Gradient of SCF Energy
            1           2           3           4           5           6
    1  -0.0000174  -0.0000189   0.0000045   0.0000002   0.0000037  -0.0000011
    2  -0.0000047   0.0000255   0.0000046  -0.0000001  -0.0000042  -0.0000072
    3   0.0000062  -0.0000004  -0.0000109   0.0000098   0.0000260   0.0000111
            7           8           9          10          11          12
    1  -0.0000032  -0.0000015  -0.0000037  -0.0000011   0.0000028  -0.0000017
    2   0.0000031   0.0000049  -0.0000098   0.0000026  -0.0000069  -0.0000033
    3   0.0000061   0.0000085   0.0000119   0.0000091   0.0000111   0.0000091
           13          14          15          16          17          18
    1   0.0000109   0.0000005   0.0000023   0.0000078   0.0000030  -0.0000001
    2  -0.0000018  -0.0000049  -0.0000070  -0.0000032  -0.0000046   0.0000010
    3   0.0000045   0.0000038   0.0000058  -0.0000029   0.0000003  -0.0000011
           19          20          21          22          23          24
    1   0.0000029   0.0000028   0.0000046   0.0000013  -0.0000008  -0.0000106
    2   0.0000081  -0.0000035  -0.0000018  -0.0000029  -0.0000015   0.0000047
    3  -0.0000125  -0.0000045  -0.0000021  -0.0000115  -0.0000071   0.0000052
           25          26          27          28          29          30
    1  -0.0000020  -0.0000058  -0.0000038   0.0000101  -0.0000020  -0.0000085
    2   0.0000063   0.0000096   0.0000044  -0.0000270   0.0000010   0.0000134
    3  -0.0000027  -0.0000008  -0.0000035   0.0000182   0.0000017   0.0000048
           31          32          33          34          35          36
    1  -0.0000083  -0.0000008   0.0000037   0.0000013  -0.0000036   0.0000021
    2  -0.0000164   0.0000091   0.0000059  -0.0000016   0.0000078   0.0000006
    3  -0.0000132  -0.0000086  -0.0000138  -0.0000117  -0.0000130  -0.0000157
           37          38          39          40          41          42
    1  -0.0000011   0.0000162   0.0000096   0.0000079   0.0000020  -0.0000010
    2   0.0000076   0.0000155   0.0000045  -0.0000017  -0.0000135  -0.0000070
    3  -0.0000148   0.0000073   0.0000028  -0.0000055  -0.0000039  -0.0000057
 Max gradient component =       2.698E-05
 RMS gradient           =       8.387E-06
 Gradient time:  CPU 1509.71 s  wall 257.02 s
 Geometry Optimization Parameters
   NAtoms,    NIC,     NZ,  NCons,   NDum,   NFix, NCnnct, MaxDiis
       42     320      42       0       0       0       0       0

 Cartesian Hessian Update
 Hessian Updated using BFGS Update


** GEOMETRY OPTIMIZATION IN DELOCALIZED INTERNAL COORDINATES **
   Searching for a Minimum

   Optimization Cycle:  12

                       Coordinates (Angstroms)
     ATOM                X               Y               Z
      1  O         0.2451967355    1.6008405029   -1.7004705729
      2  C         0.0899936585    0.4600856002   -0.7302336443
      3  H         0.5537985916   -0.4224765527   -1.1925638447
      4  C        -1.3099223337    0.1715021778   -0.2952717172
      5  C        -2.1144248877    1.1268552380    0.2490348455
      6  C        -1.7601108228    2.5861142760    0.3637214952
      7  H        -0.8806041786    2.8736775398   -0.2221680759
      8  H        -2.6111989718    3.1977314318    0.0106922170
      9  H        -1.6049201039    2.8672093145    1.4226164270
     10  C        -3.4812896056    0.8030352003    0.8046861928
     11  H        -3.6321551160    1.3909030470    1.7297158520
     12  H        -4.2541509935    1.1755692859    0.0995891749
     13  C        -3.6904068624   -0.6849107464    1.0654509637
     14  H        -4.7473671770   -0.8903162183    1.3020314625
     15  H        -3.1048363441   -0.9972506126    1.9502965813
     16  C        -3.2483577024   -1.4657864224   -0.1660150850
     17  H        -3.4655801654   -2.5435714418   -0.0643220208
     18  H        -3.8286311739   -1.1069537719   -1.0384814412
     19  C        -1.7447832040   -1.2925023900   -0.4727832994
     20  C        -0.9105699213   -2.1928851619    0.4639507489
     21  H        -1.1101423238   -1.9622222181    1.5240104670
     22  H         0.1728328119   -2.0625182247    0.2922979778
     23  H        -1.1474561135   -3.2575789720    0.2920117545
     24  C        -1.5268728960   -1.7505636312   -1.9323488290
     25  H        -0.4622825705   -1.8185629102   -2.2059452248
     26  H        -2.0190002031   -1.0597072352   -2.6380763615
     27  H        -1.9635503433   -2.7551368954   -2.0713179134
     28  C         1.1303424078    1.1225214002    0.1984229299
     29  H         0.6583974341    1.7376714736    0.9831235329
     30  C         2.2266999836    0.2836010244    0.7649347248
     31  C         3.2899519952   -0.0528795191   -0.0142767041
     32  H         3.3001532066    0.3433156252   -1.0353215634
     33  C         4.4289833779   -0.8617340616    0.3705371808
     34  H         4.4620502406   -1.2460980821    1.3952201930
     35  C         5.4474500102   -1.1588507986   -0.4675131727
     36  H         6.2951697802   -1.7707277909   -0.1509273815
     37  H         5.4583350544   -0.7952818664   -1.5000186696
     38  O         1.5629411705    1.9977823611   -0.9322990409
     39  C         2.0124234825   -0.1340609862    2.1914080968
     40  H         2.7538534312   -0.8646345543    2.5422778869
     41  H         1.0104753576   -0.5830278271    2.3262400566
     42  H         2.0528307184    0.7406084508    2.8677612709
   Point Group: c1    Number of degrees of freedom:   120


   Energy is   -773.568163860

 Hessian Updated using BFGS Update

117 Hessian modes will be used to form the next step
  Hessian Eigenvalues:
     0.001015    0.002157    0.002437    0.003175    0.005092    0.006128
     0.007460    0.007998    0.010815    0.012372    0.014439    0.014947
     0.019251    0.021812    0.022396    0.024284    0.028288    0.029439
     0.029520    0.029645    0.034458    0.038007    0.042316    0.043352
     0.048364    0.048888    0.051025    0.052260    0.053266    0.053623
     0.055003    0.055880    0.058618    0.060623    0.064218    0.068807
     0.069641    0.069986    0.072489    0.074800    0.077803    0.079042
     0.084815    0.086717    0.096291    0.097289    0.099533    0.120915
     0.123081    0.140357    0.145794    0.155087    0.159278    0.159845
     0.159921    0.159987    0.159992    0.159999    0.160043    0.160075
     0.160257    0.160627    0.161280    0.163883    0.166578    0.190119
     0.209116    0.219151    0.220465    0.230522    0.244447    0.249734
     0.252154    0.255852    0.267402    0.269061    0.273000    0.277110
     0.282866    0.285510    0.289708    0.297342    0.301112    0.307158
     0.308547    0.312327    0.327967    0.329439    0.334253    0.336447
     0.336978    0.337272    0.337468    0.337764    0.338463    0.338831
     0.339263    0.339583    0.339999    0.340574    0.341435    0.341797
     0.342417    0.343974    0.344606    0.346091    0.348343    0.349869
     0.350509    0.351409    0.353624    0.367275    0.374364    0.450137
     0.538199    0.556651    0.646641

 Minimum Search - Taking Simple RFO Step
 Searching for Lamda that Minimizes Along All modes
 Value Taken    Lamda =   0.00000000
 Step Taken.  Stepsize is  0.010804

                             Maximum     Tolerance    Cnvgd?
         Gradient           0.000018      0.000300     YES
         Displacement       0.005007      0.001200      NO
         Energy change     -0.000000      0.000001     YES

 Final energy is   -773.568163859839     


 ******************************
 **  OPTIMIZATION CONVERGED  **
 ******************************

                       Coordinates (Angstroms)
     ATOM                X               Y               Z
      1  O         0.2451967355    1.6008405029   -1.7004705729
      2  C         0.0899936585    0.4600856002   -0.7302336443
      3  H         0.5537985916   -0.4224765527   -1.1925638447
      4  C        -1.3099223337    0.1715021778   -0.2952717172
      5  C        -2.1144248877    1.1268552380    0.2490348455
      6  C        -1.7601108228    2.5861142760    0.3637214952
      7  H        -0.8806041786    2.8736775398   -0.2221680759
      8  H        -2.6111989718    3.1977314318    0.0106922170
      9  H        -1.6049201039    2.8672093145    1.4226164270
     10  C        -3.4812896056    0.8030352003    0.8046861928
     11  H        -3.6321551160    1.3909030470    1.7297158520
     12  H        -4.2541509935    1.1755692859    0.0995891749
     13  C        -3.6904068624   -0.6849107464    1.0654509637
     14  H        -4.7473671770   -0.8903162183    1.3020314625
     15  H        -3.1048363441   -0.9972506126    1.9502965813
     16  C        -3.2483577024   -1.4657864224   -0.1660150850
     17  H        -3.4655801654   -2.5435714418   -0.0643220208
     18  H        -3.8286311739   -1.1069537719   -1.0384814412
     19  C        -1.7447832040   -1.2925023900   -0.4727832994
     20  C        -0.9105699213   -2.1928851619    0.4639507489
     21  H        -1.1101423238   -1.9622222181    1.5240104670
     22  H         0.1728328119   -2.0625182247    0.2922979778
     23  H        -1.1474561135   -3.2575789720    0.2920117545
     24  C        -1.5268728960   -1.7505636312   -1.9323488290
     25  H        -0.4622825705   -1.8185629102   -2.2059452248
     26  H        -2.0190002031   -1.0597072352   -2.6380763615
     27  H        -1.9635503433   -2.7551368954   -2.0713179134
     28  C         1.1303424078    1.1225214002    0.1984229299
     29  H         0.6583974341    1.7376714736    0.9831235329
     30  C         2.2266999836    0.2836010244    0.7649347248
     31  C         3.2899519952   -0.0528795191   -0.0142767041
     32  H         3.3001532066    0.3433156252   -1.0353215634
     33  C         4.4289833779   -0.8617340616    0.3705371808
     34  H         4.4620502406   -1.2460980821    1.3952201930
     35  C         5.4474500102   -1.1588507986   -0.4675131727
     36  H         6.2951697802   -1.7707277909   -0.1509273815
     37  H         5.4583350544   -0.7952818664   -1.5000186696
     38  O         1.5629411705    1.9977823611   -0.9322990409
     39  C         2.0124234825   -0.1340609862    2.1914080968
     40  H         2.7538534312   -0.8646345543    2.5422778869
     41  H         1.0104753576   -0.5830278271    2.3262400566
     42  H         2.0528307184    0.7406084508    2.8677612709

Z-matrix Print:
$molecule
0 1
O 
C  1 1.505579
H  2 1.098991 1 107.089459
C  2 1.494067 1 115.502336 3 -124.553691 0
C  4 1.362422 2 122.286303 1 -54.512837 0
C  5 1.506031 4 124.815900 2 5.891515 0
H  6 1.095213 5 113.740780 4 12.513621 0
H  6 1.105919 5 109.299277 4 132.752915 0
H  6 1.106507 5 110.610920 4 -111.101715 0
C  5 1.510605 4 122.069343 2 -174.193018 0
H  10 1.106358 5 108.483425 4 140.351753 0
H  10 1.110522 5 108.921091 4 -105.955131 0
C  10 1.525028 5 113.336070 4 16.716859 0
H  13 1.102419 10 110.484618 5 -170.279548 0
H  13 1.106074 10 109.859474 5 72.560943 0
C  13 1.523707 10 108.786720 5 -48.367569 0
H  16 1.104150 13 111.637670 10 -174.779200 0
H  16 1.107554 13 108.579504 10 -57.544704 0
C  4 1.537506 2 114.539427 1 127.287702 0
C  2 1.543875 1 89.602517 3 109.000695 0
H  20 1.103130 2 112.262822 1 95.122132 0
C  20 1.492221 2 118.831026 1 -133.069771 0
C  22 1.360476 20 119.722962 2 77.621476 0
H  23 1.095266 22 116.855995 20 1.717661 0
C  23 1.449041 22 126.890197 20 -179.573271 0
H  25 1.094899 23 117.919417 22 -0.572434 0
C  25 1.351992 23 123.380886 22 179.644818 0
H  27 1.092359 25 121.873895 23 179.949554 0
H  27 1.094700 25 121.275256 23 -0.111541 0
O  20 1.493906 2 89.498318 1 -15.919002 0
C  22 1.501726 20 114.339559 2 -101.353835 0
H  31 1.098438 22 113.084416 20 171.760502 0
H  31 1.106188 22 110.971440 20 50.728055 0
H  31 1.106405 22 110.829830 20 -67.047199 0
C  19 1.544044 4 109.414688 2 65.555303 0
H  35 1.103069 19 111.304997 4 64.399950 0
H  35 1.104197 19 110.603315 4 -175.274975 0
H  35 1.104636 19 111.518367 4 -55.753673 0
C  19 1.545198 4 110.575394 2 -54.394467 0
H  39 1.101286 19 112.910624 4 68.021206 0
H  39 1.103414 19 110.832585 4 -53.442887 0
H  39 1.104159 19 109.439855 4 -172.728131 0
$end

 
 --------------------------------------------------------------
 
                    Orbital Energies (a.u.)
 --------------------------------------------------------------
 
 Alpha MOs
 -- Occupied --
-19.202 -19.199 -10.255 -10.253 -10.217 -10.213 -10.212 -10.200
-10.200 -10.195 -10.195 -10.194 -10.189 -10.188 -10.187 -10.182
-10.178 -10.178  -1.072  -0.876  -0.839  -0.807  -0.776  -0.763
 -0.746  -0.705  -0.671  -0.664  -0.662  -0.656  -0.604  -0.572
 -0.559  -0.542  -0.507  -0.495  -0.478  -0.462  -0.459  -0.440
 -0.432  -0.429  -0.413  -0.409  -0.400  -0.399  -0.395  -0.384
 -0.382  -0.379  -0.374  -0.365  -0.357  -0.350  -0.340  -0.338
 -0.333  -0.330  -0.324  -0.316  -0.305  -0.302  -0.301  -0.294
 -0.277  -0.229  -0.215  -0.203
 -- Virtual --
 -0.081  -0.057  -0.030   0.022   0.033   0.043   0.047   0.058
  0.062   0.072   0.074   0.078   0.081   0.092   0.103   0.104
  0.109   0.121   0.124   0.132   0.138   0.140   0.143   0.147
  0.150   0.157   0.162   0.171   0.176   0.179   0.189   0.201
  0.203   0.218   0.225   0.232   0.246   0.249   0.263   0.276
  0.303   0.306   0.335   0.340   0.359   0.387   0.400   0.409
  0.423   0.428   0.442   0.449   0.454   0.466   0.471   0.484
  0.499   0.500   0.510   0.513   0.528   0.531   0.546   0.555
  0.576   0.578   0.588   0.596   0.602   0.613   0.615   0.621
  0.631   0.637   0.640   0.649   0.655   0.659   0.666   0.670
  0.673   0.681   0.683   0.685   0.689   0.693   0.693   0.701
  0.704   0.709   0.714   0.715   0.721   0.724   0.726   0.733
  0.735   0.741   0.749   0.752   0.764   0.773   0.780   0.789
  0.805   0.807   0.816   0.834   0.847   0.860   0.865   0.871
  0.905   0.915   0.927   0.962   0.976   0.978   0.990   1.027
  1.045   1.049   1.084   1.111   1.122   1.149   1.154   1.170
  1.189   1.201   1.212   1.249   1.289   1.313   1.328   1.339
  1.358   1.395   1.452   1.506   1.603   1.880
 --------------------------------------------------------------
 
          Ground-State Mulliken Net Atomic Charges

     Atom                 Charge (a.u.)
  ----------------------------------------
      1 O                    -0.294803
      2 C                     0.084319
      3 H                     0.100133
      4 C                     0.092380
      5 C                    -0.161407
      6 C                    -0.267581
      7 H                     0.173626
      8 H                     0.119309
      9 H                     0.118157
     10 C                    -0.174873
     11 H                     0.105029
     12 H                     0.115043
     13 C                    -0.147211
     14 H                     0.099245
     15 H                     0.098815
     16 C                    -0.121792
     17 H                     0.093730
     18 H                     0.096027
     19 C                    -0.369507
     20 C                    -0.233618
     21 H                     0.121916
     22 H                     0.119994
     23 H                     0.109537
     24 C                    -0.199437
     25 H                     0.120374
     26 H                     0.116029
     27 H                     0.107652
     28 C                     0.125105
     29 H                     0.095085
     30 C                    -0.082731
     31 C                    -0.096777
     32 H                     0.103357
     33 C                    -0.070956
     34 H                     0.084340
     35 C                    -0.207227
     36 H                     0.106558
     37 H                     0.111033
     38 O                    -0.306195
     39 C                    -0.265133
     40 H                     0.122357
     41 H                     0.126948
     42 H                     0.133148
  ----------------------------------------
  Sum of atomic charges =     0.000000

 -----------------------------------------------------------------
                    Cartesian Multipole Moments
 -----------------------------------------------------------------
    Charge (ESU x 10^10)
                 0.0000
    Dipole Moment (Debye)
         X      -1.7146      Y      -2.4403      Z       3.0013
       Tot       4.2311
    Quadrupole Moments (Debye-Ang)
        XX    -107.0286     XY      -5.9507     YY    -117.0136
        XZ       1.8464     YZ       5.9260     ZZ    -113.6972
    Octopole Moments (Debye-Ang^2)
       XXX       2.0894    XXY     -12.8799    XYY     -14.3572
       YYY       3.0808    XXZ      -1.8523    XYZ      -0.2857
       YYZ      10.2730    XZZ       8.0005    YZZ      -3.8731
       ZZZ       2.8732
    Hexadecapole Moments (Debye-Ang^3)
      XXXX   -4865.7328   XXXY     -95.5843   XXYY   -1080.1325
      XYYY      23.8477   YYYY   -1478.5903   XXXZ     -26.8619
      XXYZ     -17.1191   XYYZ      18.9754   YYYZ       1.1487
      XXZZ    -957.7775   XYZZ       1.6636   YYZZ    -405.5952
      XZZZ      10.2390   YZZZ      -5.0722   ZZZZ    -900.2581
 -----------------------------------------------------------------
Archival summary:
1\1\cub-0-6.local\OPT\ProcedureUnspecified\BasisUnspecified\21624\c295_lal\MonNov2618:41:032018MonNov2618:41:032018\0\\#,OPT,ProcedureUnspecified,BasisUnspecified,\\0,1\O\C,1,1.50558\H,2,1.09899,1,107.089\C,2,1.49407,1,115.502,3,-124.554,0\C,4,1.36242,2,122.286,1,-54.5128,0\C,5,1.50603,4,124.816,2,5.89152,0\H,6,1.09521,5,113.741,4,12.5136,0\H,6,1.10592,5,109.299,4,132.753,0\H,6,1.10651,5,110.611,4,-111.102,0\C,5,1.5106,4,122.069,2,-174.193,0\H,10,1.10636,5,108.483,4,140.352,0\H,10,1.11052,5,108.921,4,-105.955,0\C,10,1.52503,5,113.336,4,16.7169,0\H,13,1.10242,10,110.485,5,-170.28,0\H,13,1.10607,10,109.859,5,72.5609,0\C,13,1.52371,10,108.787,5,-48.3676,0\H,16,1.10415,13,111.638,10,-174.779,0\H,16,1.10755,13,108.58,10,-57.5447,0\C,4,1.53751,2,114.539,1,127.288,0\C,2,1.54387,1,89.6025,3,109.001,0\H,20,1.10313,2,112.263,1,95.1221,0\C,20,1.49222,2,118.831,1,-133.07,0\C,22,1.36048,20,119.723,2,77.6215,0\H,23,1.09527,22,116.856,20,1.71766,0\C,23,1.44904,22,126.89,20,-179.573,0\H,25,1.0949,23,117.919,22,-0.572434,0\C,25,1.35199,23,123.381,22,179.645,0\H,27,1.09236,25,121.874,23,179.95,0\H,27,1.0947,25,121.275,23,-0.111541,0\O,20,1.49391,2,89.4983,1,-15.919,0\C,22,1.50173,20,114.34,2,-101.354,0\H,31,1.09844,22,113.084,20,171.761,0\H,31,1.10619,22,110.971,20,50.7281,0\H,31,1.10641,22,110.83,20,-67.0472,0\C,19,1.54404,4,109.415,2,65.5553,0\H,35,1.10307,19,111.305,4,64.4,0\H,35,1.1042,19,110.603,4,-175.275,0\H,35,1.10464,19,111.518,4,-55.7537,0\C,19,1.5452,4,110.575,2,-54.3945,0\H,39,1.10129,19,112.911,4,68.0212,0\H,39,1.10341,19,110.833,4,-53.4429,0\H,39,1.10416,19,109.44,4,-172.728,0\\\@

 Total job time:  12392.53s(wall), 92503.81s(cpu) 
 Mon Nov 26 18:41:03 2018

        *************************************************************
        *                                                           *
        *  Thank you very much for using Q-Chem.  Have a nice day.  *
        *                                                           *
        *************************************************************


