
Running Job 1 of 1 car_1_epox_opt_vdz_mgga.in
qchem car_1_epox_opt_vdz_mgga.in_28544.0 /scr/c295_lal/156822/qchem28544/ 1
/usr/software/qchem_511/exe/qcprog.exe_s car_1_epox_opt_vdz_mgga.in_28544.0 /scr/c295_lal/156822/qchem28544/
Check license passed

                  Welcome to Q-Chem
     A Quantum Leap Into The Future Of Chemistry


 Q-Chem 5.1, Q-Chem, Inc., Pleasanton, CA (2018)

 Yihan Shao,  Zhengting Gan,  E. Epifanovsky,  A. T. B. Gilbert,  M. Wormit,  
 J. Kussmann,  A. W. Lange,  A. Behn,  Jia Deng,  Xintian Feng,  D. Ghosh,  
 M. Goldey,  P. R. Horn,  L. D. Jacobson,  I. Kaliman,  T. Kus,  A. Landau,  
 Jie Liu,  E. I. Proynov,  R. M. Richard,  R. P. Steele,  E. J. Sundstrom,  
 H. L. Woodcock III,  P. M. Zimmerman,  D. Zuev,  B. Albrecht,  E. Alguire,  
 S. A. Baeppler,  D. Barton,  Z. Benda,  Y. A. Bernard,  E. J. Berquist,  
 K. B. Bravaya,  H. Burton,  D. Casanova,  Chun-Min Chang,  Yunqing Chen,  
 A. Chien,  K. D. Closser,  M. P. Coons,  S. Coriani,  S. Dasgupta,  
 A. L. Dempwolff,  M. Diedenhofen,  Hainam Do,  R. G. Edgar,  Po-Tung Fang,  
 S. Faraji,  S. Fatehi,  Qingguo Feng,  K. D. Fenk,  J. Fosso-Tande,  
 Qinghui Ge,  A. Ghysels,  G. Gidofalvi,  J. Gomes,  J. Gonthier,  A. Gunina,  
 D. Hait,  M. W. D. Hanson-Heine,  P. H. P. Harbach,  A. W. Hauser,  
 J. E. Herr,  E. G. Hohenstein,  Z. C. Holden,  Kerwin Hui,  B. C. Huynh,  
 T.-C. Jagau,  Hyunjun Ji,  B. Kaduk,  K. Khistyaev,  Jaehoon Kim,  
 P. Klunzinger,  K. Koh,  D. Kosenkov,  L. Koulias,  T. Kowalczyk,  
 C. M. Krauter,  A. Kunitsa,  Ka Un Lao,  A. Laurent,  K. V. Lawler,  
 Joonho Lee,  D. Lefrancois,  S. Lehtola,  D. S. Levine,  Yi-Pei Li,  
 You-Sheng Lin,  Fenglai Liu,  E. Livshits,  A. Luenser,  P. Manohar,  
 E. Mansoor,  S. F. Manzer,  Shan-Ping Mao,  Yuezhi Mao,  N. Mardirossian,  
 A. V. Marenich,  T. Markovich,  L. A. Martinez-Martinez,  S. A. Maurer,  
 N. J. Mayhall,  S. C. McKenzie,  J.-M. Mewes,  A. F. Morrison,  
 J. W. Mullinax,  K. Nanda,  T. S. Nguyen-Beck,  R. Olivares-Amaya,  
 J. A. Parkhill,  T. M. Perrine,  F. Plasser,  P. Pokhilko,  S. Prager,  
 A. Prociuk,  E. Ramos,  D. R. Rehn,  F. Rob,  M. Schneider,  N. Sergueev,  
 S. M. Sharada,  S. Sharma,  D. W. Small,  T. Stauch,  T. Stein,  
 Yu-Chuan Su,  A. J. W. Thom,  A. Tkatchenko,  T. Tsuchimochi,  N. M. Tubman,  
 L. Vogt,  M. L. Vidal,  O. Vydrov,  M. A. Watson,  J. Wenzel,  
 M. de Wergifosse,  T. A. Wesolowski,  A. White,  J. Witte,  A. Yamada,  
 Jun Yang,  K. Yao,  S. Yeganeh,  S. R. Yost,  Zhi-Qiang You,  A. Zech,  
 Igor Ying Zhang,  Xing Zhang,  Yan Zhao,  Ying Zhu,  B. R. Brooks,  
 G. K. L. Chan,  C. J. Cramer,  M. S. Gordon,  W. J. Hehre,  A. Klamt,  
 M. W. Schmidt,  C. D. Sherrill,  D. G. Truhlar,  A. Aspuru-Guzik,  R. Baer,  
 A. T. Bell,  N. A. Besley,  Jeng-Da Chai,  A. E. DePrince, III,  
 R. A. DiStasio Jr.,  A. Dreuw,  B. D. Dunietz,  T. R. Furlani,  
 Chao-Ping Hsu,  Yousung Jung,  Jing Kong,  D. S. Lambrecht,  WanZhen Liang,  
 C. Ochsenfeld,  V. A. Rassolov,  L. V. Slipchenko,  J. E. Subotnik,  
 T. Van Voorhis,  J. M. Herbert,  A. I. Krylov,  P. M. W. Gill,  M. Head-Gordon

 Contributors to earlier versions of Q-Chem not listed above: 
 R. D. Adamson,  B. Austin,  J. Baker,  G. J. O. Beran,  K. Brandhorst,  
 S. T. Brown,  E. F. C. Byrd,  A. K. Chakraborty,  C.-L. Cheng,  
 Siu Hung Chien,  D. M. Chipman,  D. L. Crittenden,  H. Dachsel,  
 R. J. Doerksen,  A. D. Dutoi,  L. Fusti-Molnar,  W. A. Goddard III,  
 A. Golubeva-Zadorozhnaya,  S. R. Gwaltney,  G. Hawkins,  A. Heyden,  
 S. Hirata,  G. Kedziora,  F. J. Keil,  C. Kelley,  Jihan Kim,  R. A. King,  
 R. Z. Khaliullin,  P. P. Korambath,  W. Kurlancheek,  A. M. Lee,  M. S. Lee,  
 S. V. Levchenko,  Ching Yeh Lin,  D. Liotard,  R. C. Lochan,  I. Lotan,  
 P. E. Maslen,  N. Nair,  D. P. O'Neill,  D. Neuhauser,  E. Neuscamman,  
 C. M. Oana,  R. Olson,  B. Peters,  R. Peverati,  P. A. Pieniazek,  
 Y. M. Rhee,  J. Ritchie,  M. A. Rohrdanz,  E. Rosta,  N. J. Russ,  
 H. F. Schaefer III,  N. E. Schultz,  N. Shenvi,  A. C. Simmonett,  A. Sodt,  
 D. Stuck,  K. S. Thanthiriwatte,  V. Vanovschi,  Tao Wang,  A. Warshel,  
 C. F. Williams,  Q. Wu,  X. Xu,  W. Zhang

 Please cite Q-Chem as follows:
 Y. Shao et al., Mol. Phys. 113, 184-215 (2015)
 DOI: 10.1080/00268976.2014.952696

 Q-Chem 5.1.1 for Intel X86 EM64T Linux

 Parts of Q-Chem use Armadillo 8.300.2 (Tropical Shenanigans).
 http://arma.sourceforge.net/

 Q-Chem begins on Tue Nov 27 09:49:30 2018  

Host: cub-0-20.local
0

     Scratch files written to /scr/c295_lal/156822/qchem28544//
 Aug318 |scratch|qcdevops|jenkins|workspace|build_RNUM -1
Processing $rem in /usr/software/qchem_511/config/preferences.
 MEM_TOTAL  2000 
Input Ideriv = 2
Curr. Ideriv = -1
Max.  Ideriv = 2
Input Ideriv = 1
Curr. Ideriv = 2
Max.  Ideriv = 1

Checking the input file for inconsistencies... 	...done.

--------------------------------------------------------------
User input:
--------------------------------------------------------------

$molecule
0 1
O          0.24520        1.60084       -1.70047
C          0.08999        0.46009       -0.73023
H          0.55380       -0.42248       -1.19256
C         -1.30992        0.17150       -0.29527
C         -2.11442        1.12686        0.24903
C         -1.76011        2.58611        0.36372
H         -0.88060        2.87368       -0.22217
H         -2.61120        3.19773        0.01069
H         -1.60492        2.86721        1.42262
C         -3.48129        0.80304        0.80469
H         -3.63216        1.39090        1.72972
H         -4.25415        1.17557        0.09959
C         -3.69041       -0.68491        1.06545
H         -4.74737       -0.89032        1.30203
H         -3.10484       -0.99725        1.95030
C         -3.24836       -1.46579       -0.16602
H         -3.46558       -2.54357       -0.06432
H         -3.82863       -1.10695       -1.03848
C         -1.74478       -1.29250       -0.47278
C         -0.91057       -2.19289        0.46395
H         -1.11014       -1.96222        1.52401
H          0.17283       -2.06252        0.29230
H         -1.14746       -3.25758        0.29201
C         -1.52687       -1.75056       -1.93235
H         -0.46228       -1.81856       -2.20595
H         -2.01900       -1.05971       -2.63808
H         -1.96355       -2.75514       -2.07132
C          1.13034        1.12252        0.19842
C          2.22670        0.28360        0.76493
C          3.28995       -0.05288       -0.01428
H          3.30015        0.34332       -1.03532
C          4.42898       -0.86173        0.37054
H          4.46205       -1.24610        1.39522
C          5.44745       -1.15885       -0.46751
H          6.29517       -1.77073       -0.15093
H          5.45834       -0.79528       -1.50002
C          2.01242       -0.13406        2.19141
H          2.75385       -0.86463        2.54228
H          1.01048       -0.58303        2.32624
H          2.05283        0.74061        2.86776
H          1.40027        1.71361        1.04851
$end

$rem
BASIS = VDZ
METHOD  = B97M-rV
JOBTYPE = OPT
$end
--------------------------------------------------------------
 ----------------------------------------------------------------
             Standard Nuclear Orientation (Angstroms)
    I     Atom           X                Y                Z
 ----------------------------------------------------------------
    1      O       0.2403046508     1.3621631827    -2.0628218521
    2      C       0.1504224837     0.4242483466    -0.8885121312
    3      H       0.6519841343    -0.5087740513    -1.1812640152
    4      C      -1.2293971797     0.1612260602    -0.3794547955
    5      C      -2.0739532315     1.1658081960    -0.0137564534
    6      C      -1.7899103662     2.6344227927    -0.1886585736
    7      H      -0.9313014216     2.8434764947    -0.8356428601
    8      H      -2.6732106992     3.1267624799    -0.6363700292
    9      H      -1.6380455899     3.1214303324     0.7932432047
   10      C      -3.4178590556     0.8930666311     0.6198681986
   11      H      -3.5879285932     1.6408793268     1.4172853804
   12      H      -4.2149011563     1.0866958568    -0.1287898029
   13      C      -3.5517588153    -0.5245589228     1.1658817494
   14      H      -4.5950710210    -0.7286363440     1.4577376279
   15      H      -2.9429143923    -0.6330783370     2.0829095724
   16      C      -3.0845301707    -1.5073662006     0.0993512125
   17      H      -3.2480517187    -2.5540459203     0.4105736641
   18      H      -3.6902193887    -1.3506366959    -0.8145647046
   19      C      -1.5942848596    -1.3278590381    -0.2637328403
   20      C      -0.7079905165    -1.9913387371     0.8125332029
   21      H      -0.9079840838    -1.5697847271     1.8120625056
   22      H       0.3660248588    -1.8470662706     0.5983089085
   23      H      -0.8945175730    -3.0789067818     0.8531341512
   24      C      -1.3688903513    -2.0485560151    -1.6118580198
   25      H      -0.3050284770    -2.1192507560    -1.8875988297
   26      H      -1.9010365667    -1.5301960193    -2.4277279925
   27      H      -1.7575564590    -3.0799962632    -1.5466450522
   28      C       1.1665134454     1.3004112656    -0.1246861386
   29      C       2.3079606916     0.6377288268     0.5715004495
   30      C       3.3785103609     0.2062372064    -0.1486564529
   31      H       3.3592674807     0.3979520588    -1.2268383896
   32      C       4.5593044381    -0.4600876361     0.3626659968
   33      H       4.6212248301    -0.6375230482     1.4413158768
   34      C       5.5826294760    -0.8664097708    -0.4219341736
   35      H       6.4622138784    -1.3661941248    -0.0098709409
   36      H       5.5655485837    -0.7088587197    -1.5051075422
   37      C       2.1284536463     0.4938894852     2.0555113824
   38      H       2.9079929074    -0.1204760162     2.5260794410
   39      H       1.1509267443     0.0339733453     2.2933248670
   40      H       2.1330043328     1.4835740726     2.5501158792
   41      H       1.4158222090     2.0561997053     0.5905282179
 ----------------------------------------------------------------
 Molecular Point Group                 C1    NOp =  1
 Largest Abelian Subgroup              C1    NOp =  1
 Nuclear Repulsion Energy =  1233.1781376158 hartrees
 There are       64 alpha and       64 beta electrons
 Requested basis set is VDZ
 There are 133 shells and 201 basis functions

 Total QAlloc Memory Limit   2000 MB
 Mega-Array Size       188 MB
 MEM_STATIC part       192 MB
 A cutoff of  1.0D-11 yielded   7406 shell pairs
 There are     17370 function pairs
 
 -------------------------------------------------------
 OpenMP Integral Computing Module                       
 Release: version 1.0, May 2013, Q-Chem Inc. Pittsburgh 
 -------------------------------------------------------
 Integral Job Info:
 Integral job number is                      11
 Integral operator is                         1
 short-range coefficients                     0
 long-range coefficients              100000000
 Omega coefficients                           0
 if combine SR and LR in K                    0
 Integral screening is                        0
 Integral computing path is                   2
 max size of driver memory is            800000
 size of driver memory is                 45569
 size of scratch memory is              1477076
 max col of scratch BK array                289
 max len of scratch array in speh3           22
 max len of scratch index in speh4            8
 max int batch size is                      520
 min int batch size is                       52
 fixed nKL is                                52
 max L of basis functions is                  1
 order of int derivative is                   0
 number of shells is                        133
 number of basis is                         201
 number of cartesian basis is               201
 number of contracted shell pairs          7406
 number of primitive shell pairs          20476
 maxK2 (contraction) of shell pair           25
 max number of K2 of shell pair               1
 max number of CS2 of shell pair           1849
 max number of PS2 of shell pair           4725
 mem total for path MDJ                  578474
 -------------------------------------------------------
 Smallest overlap matrix eigenvalue = 8.91E-04

 Scale SEOQF with 1.000000e-02/1.000000e-01/1.000000e-01

 Standard Electronic Orientation quadrupole field applied
 Nucleus-field energy     =     0.0000000048 hartrees
 Guess from superposition of atomic densities
 Warning:  Energy on first SCF cycle will be non-variational
 SAD guess density has 128.000000 electrons

 -----------------------------------------------------------------------
  General SCF calculation program by
  Eric Jon Sundstrom, Paul Horn, Yuezhi Mao, Dmitri Zuev, Alec White,
  David Stuck, Shaama M.S., Shane Yost, Joonho Lee, David Small,
  Daniel Levine, Susi Lehtola, Hugh Burton, Evgeny Epifanovsky
 -----------------------------------------------------------------------
 Exchange:  B97M-V      Correlation:  B97M-V
 Using SG-2 standard quadrature grid
 Nonlocal Correlation:  rVV10 with C = 0.0100 and b = 6.00 and scale = 1.00000
 Grid used for NLC:  SG-1 standard quadrature
 using 8 threads for integral computing
 -------------------------------------------------------
 OpenMP Integral computing Module                
 Release: version 1.0, May 2013, Q-Chem Inc. Pittsburgh 
 -------------------------------------------------------
 -------------------------------------------------------
 OpenMP BLAS3 based DFT computing Module                
 Release: version 1.0, May 2013, Q-Chem Inc. Pittsburgh 
 -------------------------------------------------------
 -------------------------------------------------------
 OpenMP BLAS3 based DFT computing Module                
 Release: version 1.0, May 2013, Q-Chem Inc. Pittsburgh 
 -------------------------------------------------------
 -------------------------------------------------------
 OpenMP BLAS3 based DFT computing Module                
 Release: version 1.0, May 2013, Q-Chem Inc. Pittsburgh 
 -------------------------------------------------------
 Nonlocal correlation = 0.447398387336
 A restricted SCF calculation will be
 performed using DIIS
 SCF converges when DIIS error is below 1.0e-08
 ---------------------------------------
  Cycle       Energy         DIIS error
 ---------------------------------------
 Nonlocal correlation = 4.754978466495e-01
    1    -701.1199252215      6.61e-02  
 Nonlocal correlation = 4.608692036712e-01
    2    -697.9758782092      8.35e-03  
 Nonlocal correlation = 4.671506991395e-01
    3    -693.8875197510      2.09e-02  
 Nonlocal correlation = 4.683073206488e-01
    4    -697.2252476789      1.30e-02  
 Nonlocal correlation = 4.684990900908e-01
    5    -698.1376112152      6.19e-03  
 Nonlocal correlation = 4.682097574219e-01
    6    -698.0082596512      6.90e-03  
 Nonlocal correlation = 4.682986332575e-01
    7    -698.3808677303      1.18e-03  
 Nonlocal correlation = 4.682676215849e-01
    8    -698.3650689661      1.92e-03  
 Nonlocal correlation = 4.682395485159e-01
    9    -698.3875942654      5.28e-04  
 Nonlocal correlation = 4.682108095922e-01
   10    -698.3886981221      3.29e-04  
 Nonlocal correlation = 4.681938784548e-01
   11    -698.3892431584      1.16e-04  
 Nonlocal correlation = 4.681888291323e-01
   12    -698.3892880375      7.46e-05  
 Nonlocal correlation = 4.681871391381e-01
   13    -698.3893156836      2.56e-05  
 Nonlocal correlation = 4.681861640671e-01
   14    -698.3893193101      9.45e-06  
 Nonlocal correlation = 4.681858486533e-01
   15    -698.3893197337      4.01e-06  
 Nonlocal correlation = 4.681856390720e-01
   16    -698.3893198124      1.58e-06  
 Nonlocal correlation = 4.681856657699e-01
   17    -698.3893198258      3.87e-07  
 Nonlocal correlation = 4.681856264049e-01
   18    -698.3893198264      2.15e-07  
 Nonlocal correlation = 4.681856142221e-01
   19    -698.3893198267      7.72e-08  
 Nonlocal correlation = 4.681856116558e-01
   20    -698.3893198267      2.39e-08  
   21    -698.3893198267      6.03e-09  Convergence criterion met
 ---------------------------------------
 SCF time:   CPU 11308.27s  wall 1416.00s 
 SCF   energy in the final basis set =     -698.3893198267
 Total energy in the final basis set =     -698.3893198267
 
 --------------------------------------------------------------
 
                    Orbital Energies (a.u.)
 --------------------------------------------------------------
 
 Alpha MOs
 -- Occupied --
-19.128 -10.262 -10.249 -10.226 -10.212 -10.210 -10.204 -10.202
-10.200 -10.192 -10.187 -10.186 -10.183 -10.181 -10.178 -10.172
-10.164  -0.910  -0.832  -0.828  -0.767  -0.767  -0.740  -0.697
 -0.679  -0.665  -0.659  -0.648  -0.611  -0.565  -0.554  -0.540
 -0.511  -0.488  -0.460  -0.455  -0.445  -0.432  -0.425  -0.416
 -0.404  -0.399  -0.398  -0.396  -0.384  -0.371  -0.369  -0.367
 -0.363  -0.353  -0.343  -0.338  -0.333  -0.325  -0.321  -0.310
 -0.305  -0.297  -0.288  -0.286  -0.232  -0.218  -0.203  -0.194
 -- Virtual --
 -0.138  -0.063  -0.018   0.024   0.035   0.039   0.052   0.058
  0.061   0.073   0.076   0.080   0.086   0.098   0.104   0.118
  0.118   0.127   0.131   0.132   0.138   0.145   0.147   0.154
  0.160   0.167   0.169   0.176   0.182   0.183   0.193   0.209
  0.217   0.223   0.239   0.252   0.256   0.262   0.267   0.293
  0.301   0.325   0.342   0.355   0.379   0.396   0.408   0.415
  0.424   0.438   0.448   0.460   0.468   0.471   0.486   0.487
  0.500   0.508   0.514   0.518   0.531   0.549   0.565   0.577
  0.584   0.587   0.596   0.598   0.616   0.620   0.624   0.635
  0.640   0.646   0.648   0.657   0.663   0.668   0.673   0.675
  0.676   0.681   0.688   0.690   0.694   0.696   0.702   0.703
  0.714   0.715   0.720   0.726   0.729   0.732   0.733   0.742
  0.745   0.748   0.760   0.774   0.782   0.783   0.793   0.798
  0.808   0.820   0.831   0.847   0.854   0.866   0.881   0.895
  0.918   0.922   0.948   0.967   0.981   1.016   1.032   1.065
  1.072   1.096   1.125   1.129   1.145   1.188   1.190   1.202
  1.227   1.272   1.287   1.317   1.344   1.365   1.413   1.504
  1.676
 --------------------------------------------------------------
 
          Ground-State Mulliken Net Atomic Charges

     Atom                 Charge (a.u.)
  ----------------------------------------
      1 O                    -0.439116
      2 C                     0.117879
      3 H                     0.097665
      4 C                     0.093310
      5 C                    -0.148147
      6 C                    -0.254726
      7 H                     0.161460
      8 H                     0.110835
      9 H                     0.102560
     10 C                    -0.174082
     11 H                     0.100875
     12 H                     0.111433
     13 C                    -0.145171
     14 H                     0.096010
     15 H                     0.095395
     16 C                    -0.121453
     17 H                     0.090222
     18 H                     0.095637
     19 C                    -0.370410
     20 C                    -0.229538
     21 H                     0.117932
     22 H                     0.115172
     23 H                     0.106471
     24 C                    -0.199373
     25 H                     0.117884
     26 H                     0.117174
     27 H                     0.104207
     28 C                     0.056481
     29 C                    -0.293641
     30 C                    -0.036295
     31 H                     0.093566
     32 C                    -0.077580
     33 H                     0.084688
     34 C                    -0.211177
     35 H                     0.108433
     36 H                     0.112552
     37 C                    -0.262035
     38 H                     0.141846
     39 H                     0.145742
     40 H                     0.139880
     41 H                     0.127436
  ----------------------------------------
  Sum of atomic charges =    -0.000000

 -----------------------------------------------------------------
                    Cartesian Multipole Moments
 -----------------------------------------------------------------
    Charge (ESU x 10^10)
                -0.0000
    Dipole Moment (Debye)
         X       0.5141      Y      -1.3350      Z       3.9875
       Tot       4.2363
    Quadrupole Moments (Debye-Ang)
        XX     -99.0817     XY      -1.3260     YY    -109.2909
        XZ       2.9479     YZ       6.5366     ZZ    -111.2748
    Octopole Moments (Debye-Ang^2)
       XXX       8.6765    XXY      -7.6698    XYY      -7.6271
       YYY       3.8307    XXZ       0.5468    XYZ       2.0485
       YYZ       8.9576    XZZ      10.0061    YZZ      -9.5702
       ZZZ      17.0505
    Hexadecapole Moments (Debye-Ang^3)
      XXXX   -4784.8826   XXXY    -121.7774   XXYY   -1057.3095
      XYYY      10.9021   YYYY   -1340.0892   XXXZ      -1.6484
      XXYZ     -11.2108   XYYZ       9.8211   YYYZ       6.7679
      XXZZ    -919.7240   XYZZ      -7.5910   YYZZ    -379.7839
      XZZZ      19.0473   YZZZ      22.0154   ZZZZ    -859.3839
 -----------------------------------------------------------------
 Calculating analytic gradient of the SCF energy
 Gradient of SCF Energy
            1           2           3           4           5           6
    1  -0.0271868  -0.0076108  -0.0041863   0.0006425   0.0006605  -0.0009848
    2   0.0064388  -0.0506944   0.0015094   0.0005243  -0.0010912   0.0000826
    3  -0.0376451   0.0081186  -0.0067221  -0.0054511  -0.0000634  -0.0010440
            7           8           9          10          11          12
    1  -0.0012911   0.0004594  -0.0000875   0.0003111  -0.0000087   0.0003963
    2   0.0027114   0.0001946   0.0000017   0.0000902  -0.0002469   0.0000953
    3   0.0004958  -0.0001285  -0.0007389   0.0009638  -0.0000528  -0.0001697
           13          14          15          16          17          18
    1  -0.0000768   0.0001795  -0.0002614   0.0001963   0.0001158   0.0002032
    2  -0.0000765   0.0001016  -0.0000357  -0.0000497   0.0003801   0.0003073
    3   0.0000875  -0.0000861   0.0002599  -0.0002887   0.0000311   0.0000193
           19          20          21          22          23          24
    1  -0.0004222  -0.0001303   0.0002953   0.0002716   0.0000799   0.0000636
    2  -0.0014948   0.0001930  -0.0000051   0.0003093   0.0001647  -0.0000192
    3  -0.0004259  -0.0000223  -0.0005012   0.0001845   0.0000407   0.0000554
           25          26          27          28          29          30
    1  -0.0000856  -0.0002248  -0.0000455   0.0075791  -0.0225471  -0.0075218
    2  -0.0001092  -0.0000583   0.0000996   0.0690235   0.0388856   0.0087038
    3   0.0000737  -0.0002038  -0.0000031  -0.0085059   0.0474434  -0.0037194
           31          32          33          34          35          36
    1  -0.0000928  -0.0014266   0.0001586  -0.0011235   0.0002053  -0.0000961
    2   0.0013427  -0.0022503   0.0001424   0.0002625   0.0003602  -0.0000480
    3   0.0004705   0.0010343   0.0001851   0.0000539   0.0001720  -0.0002008
           37          38          39          40          41
    1   0.0072139  -0.0018317  -0.0009792  -0.0001093   0.0592974
    2  -0.0068137  -0.0008210  -0.0004620   0.0000278  -0.0676745
    3  -0.0036189   0.0031548   0.0010752  -0.0023250   0.0079954
 Max gradient component =       6.902E-02
 RMS gradient           =       1.356E-02
 Gradient time:  CPU 1431.02 s  wall 240.64 s
 Geometry Optimization Parameters
   NAtoms,    NIC,     NZ,  NCons,   NDum,   NFix, NCnnct, MaxDiis
       41     299       0       0       0       0       0       0


** GEOMETRY OPTIMIZATION IN DELOCALIZED INTERNAL COORDINATES **
   Searching for a Minimum

   Optimization Cycle:   1

                       Coordinates (Angstroms)
     ATOM                X               Y               Z
      1  O         0.2403046508    1.3621631827   -2.0628218521
      2  C         0.1504224837    0.4242483466   -0.8885121312
      3  H         0.6519841343   -0.5087740513   -1.1812640152
      4  C        -1.2293971797    0.1612260602   -0.3794547955
      5  C        -2.0739532315    1.1658081960   -0.0137564534
      6  C        -1.7899103662    2.6344227927   -0.1886585736
      7  H        -0.9313014216    2.8434764947   -0.8356428601
      8  H        -2.6732106992    3.1267624799   -0.6363700292
      9  H        -1.6380455899    3.1214303324    0.7932432047
     10  C        -3.4178590556    0.8930666311    0.6198681986
     11  H        -3.5879285932    1.6408793268    1.4172853804
     12  H        -4.2149011563    1.0866958568   -0.1287898029
     13  C        -3.5517588153   -0.5245589228    1.1658817494
     14  H        -4.5950710210   -0.7286363440    1.4577376279
     15  H        -2.9429143923   -0.6330783370    2.0829095724
     16  C        -3.0845301707   -1.5073662006    0.0993512125
     17  H        -3.2480517187   -2.5540459203    0.4105736641
     18  H        -3.6902193887   -1.3506366959   -0.8145647046
     19  C        -1.5942848596   -1.3278590381   -0.2637328403
     20  C        -0.7079905165   -1.9913387371    0.8125332029
     21  H        -0.9079840838   -1.5697847271    1.8120625056
     22  H         0.3660248588   -1.8470662706    0.5983089085
     23  H        -0.8945175730   -3.0789067818    0.8531341512
     24  C        -1.3688903513   -2.0485560151   -1.6118580198
     25  H        -0.3050284770   -2.1192507560   -1.8875988297
     26  H        -1.9010365667   -1.5301960193   -2.4277279925
     27  H        -1.7575564590   -3.0799962632   -1.5466450522
     28  C         1.1665134454    1.3004112656   -0.1246861386
     29  C         2.3079606916    0.6377288268    0.5715004495
     30  C         3.3785103609    0.2062372064   -0.1486564529
     31  H         3.3592674807    0.3979520588   -1.2268383896
     32  C         4.5593044381   -0.4600876361    0.3626659968
     33  H         4.6212248301   -0.6375230482    1.4413158768
     34  C         5.5826294760   -0.8664097708   -0.4219341736
     35  H         6.4622138784   -1.3661941248   -0.0098709409
     36  H         5.5655485837   -0.7088587197   -1.5051075422
     37  C         2.1284536463    0.4938894852    2.0555113824
     38  H         2.9079929074   -0.1204760162    2.5260794410
     39  H         1.1509267443    0.0339733453    2.2933248670
     40  H         2.1330043328    1.4835740726    2.5501158792
     41  H         1.4158222090    2.0561997053    0.5905282179
   Point Group: c1    Number of degrees of freedom:   117


   Energy is   -698.389319827


 Attempting to Generate Delocalized Internal Coordinates

117 Hessian modes will be used to form the next step
  Hessian Eigenvalues:
     0.003199    0.003353    0.003376    0.005209    0.008382    0.008401
     0.008813    0.008950    0.009964    0.010208    0.011523    0.011753
     0.015198    0.015822    0.015920    0.021818    0.022386    0.027635
     0.028757    0.028757    0.030393    0.032114    0.043450    0.044258
     0.048192    0.049686    0.051694    0.053058    0.053439    0.054360
     0.055165    0.056473    0.059842    0.066882    0.068925    0.069029
     0.070076    0.073575    0.075407    0.078366    0.078915    0.083991
     0.096824    0.098651    0.121082    0.122342    0.129453    0.133955
     0.159983    0.159999    0.160000    0.160000    0.160000    0.160000
     0.160000    0.160000    0.160000    0.160000    0.160000    0.160000
     0.160000    0.160000    0.160000    0.160000    0.160868    0.185597
     0.188628    0.210594    0.220000    0.220007    0.230102    0.233153
     0.249852    0.249959    0.249975    0.250000    0.271370    0.280631
     0.281290    0.281637    0.281789    0.287451    0.294730    0.306722
     0.317537    0.317991    0.321962    0.325449    0.328609    0.329720
     0.329837    0.329890    0.330077    0.330083    0.330188    0.330356
     0.331748    0.332073    0.332225    0.332256    0.332278    0.333075
     0.333449    0.334160    0.335402    0.337931    0.338557    0.342114
     0.342166    0.342526    0.342745    0.345414    0.372300    0.383711
     0.505449    0.528520    0.545992

 Minimum Search - Taking Simple RFO Step
 Searching for Lamda that Minimizes Along All modes
 Value Taken    Lamda =  -0.09644988
 Calculated Step too Large.  Step scaled by  0.444548
 Step Taken.  Stepsize is  0.300000

                             Maximum     Tolerance    Cnvgd?
         Gradient           0.060998      0.000300      NO
         Displacement       0.107829      0.001200      NO
         Energy change     *********      0.000001      NO


 New Cartesian Coordinates Obtained by Inverse Iteration

 Displacement from previous Coordinates is:  1.085214
 ----------------------------------------------------------------
             Standard Nuclear Orientation (Angstroms)
    I     Atom           X                Y                Z
 ----------------------------------------------------------------
    1      O       0.3672241425     1.3457935727    -1.9441114050
    2      C       0.1680333072     0.4000919318    -0.8132730226
    3      H       0.6860559046    -0.5348329378    -1.0721851708
    4      C      -1.2307317778     0.1476886798    -0.3475957899
    5      C      -2.0748525264     1.1636570739    -0.0171847452
    6      C      -1.7569498324     2.6237015148    -0.1922749412
    7      H      -0.8703764478     2.8033230105    -0.8104590715
    8      H      -2.6134630031     3.1299088026    -0.6754736236
    9      H      -1.6290789736     3.1159636828     0.7908384046
   10      C      -3.4434758499     0.9131197198     0.5709936383
   11      H      -3.6311845687     1.6683718675     1.3575230116
   12      H      -4.2123792827     1.1115941843    -0.2054369637
   13      C      -3.6125632273    -0.4994092047     1.1212644849
   14      H      -4.6676094795    -0.6894108389     1.3788674413
   15      H      -3.0362416686    -0.6083393566     2.0589750993
   16      C      -3.1204557550    -1.4958158296     0.0786116388
   17      H      -3.3068172309    -2.5384593939     0.3912557624
   18      H      -3.6927161500    -1.3392284109    -0.8566793731
   19      C      -1.6160210852    -1.3360231645    -0.2339240316
   20      C      -0.7761323315    -2.0031626265     0.8769099734
   21      H      -1.0059942133    -1.5729716420     1.8665957390
   22      H       0.3062855438    -1.8737345553     0.6994030506
   23      H      -0.9776543372    -3.0881602709     0.9172250152
   24      C      -1.3521869413    -2.0684300355    -1.5686525148
   25      H      -0.2801892060    -2.1528971601    -1.8066296774
   26      H      -1.8493450605    -1.5493139669    -2.4056672542
   27      H      -1.7547492541    -3.0950052052    -1.5106646550
   28      C       1.1363594882     1.2750018567    -0.0730176391
   29      C       2.3235743245     0.6128893309     0.5668674424
   30      C       3.3974424014     0.2224422401    -0.1780515276
   31      H       3.3584399997     0.4351290580    -1.2518800383
   32      C       4.6041427194    -0.4220152202     0.3007911267
   33      H       4.6869934950    -0.6202054642     1.3743205989
   34      C       5.6264012777    -0.7852351846    -0.5066051268
   35      H       6.5242924224    -1.2707763215    -0.1177393162
   36      H       5.5893994666    -0.6061607872    -1.5858229024
   37      C       2.1719790232     0.4306784328     2.0505967555
   38      H       2.9778893028    -0.1767345928     2.4836235751
   39      H       1.2111442782    -0.0596886034     2.2922656877
   40      H       2.1630091378     1.4050619709     2.5758262325
   41      H       1.2542694334     2.0921391137     0.6300140104
 ----------------------------------------------------------------
 Molecular Point Group                 C1    NOp =  1
 Largest Abelian Subgroup              C1    NOp =  1
 Nuclear Repulsion Energy =  1234.2309051052 hartrees
 There are       64 alpha and       64 beta electrons
 Applying Cartesian multipole field
    Component          Value
    ---------          -----
     (2,0,0)        1.00000E-12
     (0,2,0)        2.00000E-11
     (0,0,2)       -3.00000E-11
 Nucleus-field energy     =     0.0000000053 hartrees
 Requested basis set is VDZ
 There are 133 shells and 201 basis functions
 A cutoff of  1.0D-11 yielded   7394 shell pairs
 There are     17346 function pairs
 Smallest overlap matrix eigenvalue = 8.67E-04
 Guess MOs from SCF MO coefficient file

 -----------------------------------------------------------------------
  General SCF calculation program by
  Eric Jon Sundstrom, Paul Horn, Yuezhi Mao, Dmitri Zuev, Alec White,
  David Stuck, Shaama M.S., Shane Yost, Joonho Lee, David Small,
  Daniel Levine, Susi Lehtola, Hugh Burton, Evgeny Epifanovsky
 -----------------------------------------------------------------------
 Exchange:  B97M-V      Correlation:  B97M-V
 Using SG-2 standard quadrature grid
 Nonlocal Correlation:  rVV10 with C = 0.0100 and b = 6.00 and scale = 1.00000
 Grid used for NLC:  SG-1 standard quadrature
 using 8 threads for integral computing
 -------------------------------------------------------
 OpenMP Integral computing Module                
 Release: version 1.0, May 2013, Q-Chem Inc. Pittsburgh 
 -------------------------------------------------------
 -------------------------------------------------------
 OpenMP BLAS3 based DFT computing Module                
 Release: version 1.0, May 2013, Q-Chem Inc. Pittsburgh 
 -------------------------------------------------------
 -------------------------------------------------------
 OpenMP BLAS3 based DFT computing Module                
 Release: version 1.0, May 2013, Q-Chem Inc. Pittsburgh 
 -------------------------------------------------------
 -------------------------------------------------------
 OpenMP BLAS3 based DFT computing Module                
 Release: version 1.0, May 2013, Q-Chem Inc. Pittsburgh 
 -------------------------------------------------------
 Nonlocal correlation = 0.468028072415
 A restricted SCF calculation will be
 performed using DIIS
 SCF converges when DIIS error is below 1.0e-08
 ---------------------------------------
  Cycle       Energy         DIIS error
 ---------------------------------------
 Nonlocal correlation = 4.681475821558e-01
    1    -698.4167051114      1.02e-03  
 Nonlocal correlation = 4.679870846433e-01
    2    -698.4289647777      3.06e-04  
 Nonlocal correlation = 4.681675587363e-01
    3    -698.4255769749      8.31e-04  
 Nonlocal correlation = 4.681051296611e-01
    4    -698.4287771414      3.85e-04  
 Nonlocal correlation = 4.681118730921e-01
    5    -698.4295123532      5.76e-05  
 Nonlocal correlation = 4.681108284873e-01
    6    -698.4295306073      2.08e-05  
 Nonlocal correlation = 4.681104831098e-01
    7    -698.4295334042      6.52e-06  
 Nonlocal correlation = 4.681107009542e-01
    8    -698.4295336038      3.14e-06  
 Nonlocal correlation = 4.681108340677e-01
    9    -698.4295336588      6.55e-07  
 Nonlocal correlation = 4.681108412962e-01
   10    -698.4295336610      2.27e-07  
 Nonlocal correlation = 4.681108357408e-01
   11    -698.4295336613      7.22e-08  
 Nonlocal correlation = 4.681108352200e-01
   12    -698.4295336613      1.29e-08  
   13    -698.4295336613      3.14e-09  Convergence criterion met
 ---------------------------------------
 SCF time:   CPU 6997.70s  wall 876.00s 
 SCF   energy in the final basis set =     -698.4295336613
 Total energy in the final basis set =     -698.4295336613
 
 --------------------------------------------------------------
 
                    Orbital Energies (a.u.)
 --------------------------------------------------------------
 
 Alpha MOs
 -- Occupied --
-19.141 -10.263 -10.246 -10.224 -10.210 -10.209 -10.203 -10.200
-10.198 -10.190 -10.186 -10.185 -10.182 -10.180 -10.178 -10.172
-10.165  -0.933  -0.828  -0.822  -0.766  -0.763  -0.741  -0.695
 -0.677  -0.663  -0.659  -0.648  -0.608  -0.565  -0.554  -0.539
 -0.509  -0.489  -0.465  -0.455  -0.442  -0.432  -0.424  -0.415
 -0.404  -0.399  -0.397  -0.393  -0.386  -0.371  -0.368  -0.366
 -0.364  -0.355  -0.344  -0.340  -0.332  -0.325  -0.321  -0.313
 -0.306  -0.297  -0.288  -0.287  -0.243  -0.221  -0.207  -0.201
 -- Virtual --
 -0.121  -0.060  -0.018   0.026   0.035   0.043   0.051   0.060
  0.063   0.074   0.077   0.080   0.086   0.098   0.103   0.117
  0.121   0.127   0.131   0.132   0.139   0.145   0.146   0.153
  0.159   0.168   0.171   0.177   0.182   0.183   0.196   0.208
  0.217   0.227   0.241   0.252   0.257   0.263   0.272   0.293
  0.305   0.325   0.345   0.358   0.383   0.398   0.411   0.417
  0.425   0.443   0.448   0.461   0.466   0.472   0.487   0.491
  0.500   0.504   0.516   0.522   0.535   0.545   0.565   0.583
  0.584   0.590   0.597   0.602   0.618   0.620   0.625   0.635
  0.641   0.645   0.648   0.658   0.665   0.669   0.673   0.674
  0.677   0.682   0.688   0.690   0.694   0.697   0.700   0.703
  0.712   0.716   0.719   0.726   0.730   0.731   0.734   0.741
  0.746   0.748   0.762   0.769   0.783   0.785   0.793   0.796
  0.812   0.822   0.834   0.850   0.853   0.867   0.883   0.900
  0.921   0.939   0.947   0.974   0.985   1.017   1.027   1.063
  1.067   1.094   1.124   1.134   1.145   1.188   1.189   1.199
  1.236   1.275   1.293   1.317   1.348   1.360   1.419   1.512
  1.674
 --------------------------------------------------------------
 
          Ground-State Mulliken Net Atomic Charges

     Atom                 Charge (a.u.)
  ----------------------------------------
      1 O                    -0.432283
      2 C                     0.112101
      3 H                     0.101922
      4 C                     0.111999
      5 C                    -0.163714
      6 C                    -0.259720
      7 H                     0.162642
      8 H                     0.111173
      9 H                     0.103186
     10 C                    -0.170314
     11 H                     0.099510
     12 H                     0.109933
     13 C                    -0.145972
     14 H                     0.095723
     15 H                     0.095785
     16 C                    -0.121302
     17 H                     0.089996
     18 H                     0.095132
     19 C                    -0.369233
     20 C                    -0.228475
     21 H                     0.116835
     22 H                     0.114390
     23 H                     0.106382
     24 C                    -0.200417
     25 H                     0.117270
     26 H                     0.115987
     27 H                     0.104253
     28 C                     0.039612
     29 C                    -0.257340
     30 C                    -0.046495
     31 H                     0.093781
     32 C                    -0.079480
     33 H                     0.084206
     34 C                    -0.211688
     35 H                     0.107755
     36 H                     0.111739
     37 C                    -0.264915
     38 H                     0.140321
     39 H                     0.142669
     40 H                     0.136719
     41 H                     0.130326
  ----------------------------------------
  Sum of atomic charges =    -0.000000

 -----------------------------------------------------------------
                    Cartesian Multipole Moments
 -----------------------------------------------------------------
    Charge (ESU x 10^10)
                -0.0000
    Dipole Moment (Debye)
         X       0.2495      Y      -1.1892      Z       3.6325
       Tot       3.8304
    Quadrupole Moments (Debye-Ang)
        XX    -100.4045     XY      -1.7049     YY    -109.0495
        XZ       3.1839     YZ       5.8450     ZZ    -110.3883
    Octopole Moments (Debye-Ang^2)
       XXX       6.1039    XXY      -8.4702    XYY      -9.3748
       YYY       5.0895    XXZ      -0.1518    XYZ       2.2809
       YYZ       7.7564    XZZ       8.5992    YZZ      -7.1391
       ZZZ      10.5933
    Hexadecapole Moments (Debye-Ang^3)
      XXXX   -4876.2875   XXXY    -133.4039   XXYY   -1076.8062
      XYYY      -3.4565   YYYY   -1326.9825   XXXZ      14.5994
      XXYZ     -11.4878   XYYZ      16.1538   YYYZ       6.9295
      XXZZ    -931.2107   XYZZ     -12.4619   YYZZ    -370.4041
      XZZZ      33.5619   YZZZ      17.1425   ZZZZ    -821.2011
 -----------------------------------------------------------------
 Calculating analytic gradient of the SCF energy
 Gradient of SCF Energy
            1           2           3           4           5           6
    1  -0.0296376   0.0037760   0.0000505   0.0036436   0.0003119  -0.0003746
    2  -0.0012722  -0.0267334   0.0022329  -0.0011992   0.0016166  -0.0006580
    3  -0.0384342   0.0028732  -0.0050126  -0.0026708   0.0002781  -0.0007946
            7           8           9          10          11          12
    1  -0.0001218   0.0001618  -0.0001302   0.0000928   0.0000886   0.0002399
    2   0.0012686  -0.0000832  -0.0000969  -0.0001911  -0.0001393   0.0001458
    3   0.0002296  -0.0000839  -0.0004497   0.0004861  -0.0001601  -0.0000873
           13          14          15          16          17          18
    1   0.0000444   0.0000965  -0.0001628  -0.0000011   0.0000937   0.0000456
    2  -0.0001689   0.0001302  -0.0000142  -0.0001496   0.0002471   0.0002619
    3  -0.0000042  -0.0000550   0.0001813  -0.0001075  -0.0000340   0.0000346
           19          20          21          22          23          24
    1  -0.0005521   0.0000153   0.0000830   0.0002517   0.0000094  -0.0000555
    2  -0.0013399   0.0001110   0.0000230   0.0002890   0.0001275   0.0000540
    3   0.0001014  -0.0000867  -0.0003101   0.0002328   0.0000443  -0.0001388
           25          26          27          28          29          30
    1  -0.0001314  -0.0000605  -0.0000408  -0.0142788  -0.0191540  -0.0007933
    2  -0.0001783  -0.0000086   0.0000751   0.0477143   0.0188662   0.0042243
    3  -0.0000370  -0.0000915   0.0000820  -0.0109237   0.0437695  -0.0041246
           31          32          33          34          35          36
    1   0.0001853  -0.0006495  -0.0000119  -0.0003030   0.0000968  -0.0000312
    2   0.0004948  -0.0005073   0.0001099  -0.0000204   0.0000293   0.0000622
    3   0.0003884   0.0009340   0.0000166  -0.0002986   0.0000614  -0.0000800
           37          38          39          40          41
    1   0.0059325  -0.0011834  -0.0003707  -0.0002160   0.0530408
    2  -0.0060852  -0.0005222  -0.0000878   0.0001546  -0.0387814
    3  -0.0020209   0.0019189   0.0004389  -0.0011441   0.0150774
 Max gradient component =       5.304E-02
 RMS gradient           =       1.030E-02
 Gradient time:  CPU 1430.35 s  wall 240.62 s
 Geometry Optimization Parameters
   NAtoms,    NIC,     NZ,  NCons,   NDum,   NFix, NCnnct, MaxDiis
       41     299       0       0       0       0       0       0

 Cartesian Hessian Update
 Hessian Updated using BFGS Update


** GEOMETRY OPTIMIZATION IN DELOCALIZED INTERNAL COORDINATES **
   Searching for a Minimum

   Optimization Cycle:   2

                       Coordinates (Angstroms)
     ATOM                X               Y               Z
      1  O         0.3672241425    1.3457935727   -1.9441114050
      2  C         0.1680333072    0.4000919318   -0.8132730226
      3  H         0.6860559046   -0.5348329378   -1.0721851708
      4  C        -1.2307317778    0.1476886798   -0.3475957899
      5  C        -2.0748525264    1.1636570739   -0.0171847452
      6  C        -1.7569498324    2.6237015148   -0.1922749412
      7  H        -0.8703764478    2.8033230105   -0.8104590715
      8  H        -2.6134630031    3.1299088026   -0.6754736236
      9  H        -1.6290789736    3.1159636828    0.7908384046
     10  C        -3.4434758499    0.9131197198    0.5709936383
     11  H        -3.6311845687    1.6683718675    1.3575230116
     12  H        -4.2123792827    1.1115941843   -0.2054369637
     13  C        -3.6125632273   -0.4994092047    1.1212644849
     14  H        -4.6676094795   -0.6894108389    1.3788674413
     15  H        -3.0362416686   -0.6083393566    2.0589750993
     16  C        -3.1204557550   -1.4958158296    0.0786116388
     17  H        -3.3068172309   -2.5384593939    0.3912557624
     18  H        -3.6927161500   -1.3392284109   -0.8566793731
     19  C        -1.6160210852   -1.3360231645   -0.2339240316
     20  C        -0.7761323315   -2.0031626265    0.8769099734
     21  H        -1.0059942133   -1.5729716420    1.8665957390
     22  H         0.3062855438   -1.8737345553    0.6994030506
     23  H        -0.9776543372   -3.0881602709    0.9172250152
     24  C        -1.3521869413   -2.0684300355   -1.5686525148
     25  H        -0.2801892060   -2.1528971601   -1.8066296774
     26  H        -1.8493450605   -1.5493139669   -2.4056672542
     27  H        -1.7547492541   -3.0950052052   -1.5106646550
     28  C         1.1363594882    1.2750018567   -0.0730176391
     29  C         2.3235743245    0.6128893309    0.5668674424
     30  C         3.3974424014    0.2224422401   -0.1780515276
     31  H         3.3584399997    0.4351290580   -1.2518800383
     32  C         4.6041427194   -0.4220152202    0.3007911267
     33  H         4.6869934950   -0.6202054642    1.3743205989
     34  C         5.6264012777   -0.7852351846   -0.5066051268
     35  H         6.5242924224   -1.2707763215   -0.1177393162
     36  H         5.5893994666   -0.6061607872   -1.5858229024
     37  C         2.1719790232    0.4306784328    2.0505967555
     38  H         2.9778893028   -0.1767345928    2.4836235751
     39  H         1.2111442782   -0.0596886034    2.2922656877
     40  H         2.1630091378    1.4050619709    2.5758262325
     41  H         1.2542694334    2.0921391137    0.6300140104
   Point Group: c1    Number of degrees of freedom:   117


   Energy is   -698.429533661

 Hessian Updated using BFGS Update

105 Hessian modes will be used to form the next step
  Hessian Eigenvalues:
     0.003199    0.003352    0.003376    0.005209    0.008361    0.008401
     0.008875    0.008995    0.009964    0.010221    0.011528    0.011754
     0.015239    0.015850    0.015921    0.021808    0.022381    0.026651
     0.028305    0.028757    0.028848    0.030403    0.032146    0.043450
     0.048193    0.049682    0.050686    0.051704    0.053059    0.053445
     0.054361    0.055170    0.056473    0.059842    0.068932    0.069028
     0.070076    0.073607    0.075402    0.076961    0.078376    0.078970
     0.083991    0.096825    0.098652    0.121082    0.129324    0.133954
     0.158996    0.159986    0.159999    0.160056    0.160868    0.163843
     0.188641    0.212321    0.219984    0.220003    0.230083    0.238717
     0.249371    0.249930    0.249986    0.258949    0.271373    0.280630
     0.281287    0.281637    0.287450    0.294705    0.306715    0.309598
     0.317029    0.319448    0.322064    0.325449    0.328609    0.329719
     0.329839    0.329890    0.330019    0.330090    0.330188    0.330356
     0.331748    0.332225    0.332256    0.332278    0.333075    0.333448
     0.334160    0.335402    0.337920    0.338555    0.342113    0.342143
     0.342525    0.342745    0.345414    0.359673    0.383707    0.501520
     0.506816    0.545841    0.646411

 Minimum Search - Taking Simple RFO Step
 Searching for Lamda that Minimizes Along All modes
 Value Taken    Lamda =  -0.11965583
 Calculated Step too Large.  Step scaled by  0.336162
 Step Taken.  Stepsize is  0.300000

                             Maximum     Tolerance    Cnvgd?
         Gradient           0.052218      0.000300      NO
         Displacement       0.112286      0.001200      NO
         Energy change     -0.040214      0.000001      NO


 New Cartesian Coordinates Obtained by Inverse Iteration

 Displacement from previous Coordinates is:  0.888482
 ----------------------------------------------------------------
             Standard Nuclear Orientation (Angstroms)
    I     Atom           X                Y                Z
 ----------------------------------------------------------------
    1      O       0.5213067409     1.3330589744    -1.7940574577
    2      C       0.1797364263     0.3692792564    -0.7412174077
    3      H       0.6870606852    -0.5780211871    -0.9774671872
    4      C      -1.2385165165     0.1339980744    -0.3150951544
    5      C      -2.0804660143     1.1568764723    -0.0037286037
    6      C      -1.7393971167     2.6133101017    -0.1632318681
    7      H      -0.8337644159     2.7808334972    -0.7565963388
    8      H      -2.5753254985     3.1333014976    -0.6675890861
    9      H      -1.6317525622     3.1001752690     0.8253905973
   10      C      -3.4678686299     0.9198886904     0.5452525231
   11      H      -3.6690708723     1.6737135327     1.3300812384
   12      H      -4.2130688162     1.1302103196    -0.2509956175
   13      C      -3.6674185849    -0.4931251302     1.0840449960
   14      H      -4.7312356574    -0.6728229910     1.3116380439
   15      H      -3.1182235882    -0.6126499297     2.0365625605
   16      C      -3.1574945782    -1.4901689430     0.0507586459
   17      H      -3.3636487792    -2.5323550090     0.3530411894
   18      H      -3.7018321653    -1.3233340707    -0.8993218968
   19      C      -1.6431203789    -1.3451987726    -0.2188303089
   20      C      -0.8425817409    -2.0277502790     0.9116547543
   21      H      -1.0949662988    -1.6004212570     1.8973191513
   22      H       0.2455564809    -1.9101491323     0.7647570342
   23      H      -1.0575562933    -3.1106454837     0.9399667115
   24      C      -1.3489348475    -2.0739460632    -1.5490596498
   25      H      -0.2712792641    -2.1682352416    -1.7561932693
   26      H      -1.8162560088    -1.5453508411    -2.3971836890
   27      H      -1.7635960041    -3.0965702397    -1.5084657268
   28      C       1.1336525324     1.2360060531    -0.0631267196
   29      C       2.3553325080     0.6042971128     0.5453776916
   30      C       3.4265991225     0.2224898337    -0.2080311631
   31      H       3.3681359373     0.4179052899    -1.2845017361
   32      C       4.6524588863    -0.3924174683     0.2617216380
   33      H       4.7548522758    -0.5728837875     1.3367037073
   34      C       5.6700375633    -0.7485469785    -0.5546667880
   35      H       6.5824167842    -1.2108244073    -0.1714248952
   36      H       5.6145690444    -0.5868503537    -1.6357769758
   37      C       2.2236261718     0.4444069550     2.0338377650
   38      H       3.0488244338    -0.1408953438     2.4606632851
   39      H       1.2759420638    -0.0607053117     2.2949040589
   40      H       2.2031763116     1.4253672737     2.5469413665
   41      H       1.1258581293     2.1092952879     0.5953844803
 ----------------------------------------------------------------
 Molecular Point Group                 C1    NOp =  1
 Largest Abelian Subgroup              C1    NOp =  1
 Nuclear Repulsion Energy =  1235.1239716940 hartrees
 There are       64 alpha and       64 beta electrons
 Applying Cartesian multipole field
    Component          Value
    ---------          -----
     (2,0,0)        1.00000E-12
     (0,2,0)        2.00000E-11
     (0,0,2)       -3.00000E-11
 Nucleus-field energy     =     0.0000000061 hartrees
 Requested basis set is VDZ
 There are 133 shells and 201 basis functions
 A cutoff of  1.0D-11 yielded   7380 shell pairs
 There are     17302 function pairs
 Smallest overlap matrix eigenvalue = 8.42E-04
 Guess MOs from SCF MO coefficient file

 -----------------------------------------------------------------------
  General SCF calculation program by
  Eric Jon Sundstrom, Paul Horn, Yuezhi Mao, Dmitri Zuev, Alec White,
  David Stuck, Shaama M.S., Shane Yost, Joonho Lee, David Small,
  Daniel Levine, Susi Lehtola, Hugh Burton, Evgeny Epifanovsky
 -----------------------------------------------------------------------
 Exchange:  B97M-V      Correlation:  B97M-V
 Using SG-2 standard quadrature grid
 Nonlocal Correlation:  rVV10 with C = 0.0100 and b = 6.00 and scale = 1.00000
 Grid used for NLC:  SG-1 standard quadrature
 using 8 threads for integral computing
 -------------------------------------------------------
 OpenMP Integral computing Module                
 Release: version 1.0, May 2013, Q-Chem Inc. Pittsburgh 
 -------------------------------------------------------
 -------------------------------------------------------
 OpenMP BLAS3 based DFT computing Module                
 Release: version 1.0, May 2013, Q-Chem Inc. Pittsburgh 
 -------------------------------------------------------
 -------------------------------------------------------
 OpenMP BLAS3 based DFT computing Module                
 Release: version 1.0, May 2013, Q-Chem Inc. Pittsburgh 
 -------------------------------------------------------
 -------------------------------------------------------
 OpenMP BLAS3 based DFT computing Module                
 Release: version 1.0, May 2013, Q-Chem Inc. Pittsburgh 
 -------------------------------------------------------
 Nonlocal correlation = 0.468050836614
 A restricted SCF calculation will be
 performed using DIIS
 SCF converges when DIIS error is below 1.0e-08
 ---------------------------------------
  Cycle       Energy         DIIS error
 ---------------------------------------
 Nonlocal correlation = 4.682269726015e-01
    1    -698.4526655926      1.10e-03  
 Nonlocal correlation = 4.680690578097e-01
    2    -698.4676824462      2.53e-04  
 Nonlocal correlation = 4.681892174795e-01
    3    -698.4659066533      6.25e-04  
 Nonlocal correlation = 4.681704378998e-01
    4    -698.4678972615      1.71e-04  
 Nonlocal correlation = 4.681780951451e-01
    5    -698.4680356009      4.00e-05  
 Nonlocal correlation = 4.681763900371e-01
    6    -698.4680423569      1.93e-05  
 Nonlocal correlation = 4.681757591526e-01
    7    -698.4680446900      3.85e-06  
 Nonlocal correlation = 4.681758663261e-01
    8    -698.4680447644      1.91e-06  
 Nonlocal correlation = 4.681759924770e-01
    9    -698.4680447835      5.01e-07  
 Nonlocal correlation = 4.681759867697e-01
   10    -698.4680447849      1.36e-07  
 Nonlocal correlation = 4.681759821829e-01
   11    -698.4680447850      5.41e-08  
 Nonlocal correlation = 4.681759824965e-01
   12    -698.4680447850      1.11e-08  
   13    -698.4680447851      3.34e-09  Convergence criterion met
 ---------------------------------------
 SCF time:   CPU 6993.43s  wall 876.00s 
 SCF   energy in the final basis set =     -698.4680447851
 Total energy in the final basis set =     -698.4680447851
 
 --------------------------------------------------------------
 
                    Orbital Energies (a.u.)
 --------------------------------------------------------------
 
 Alpha MOs
 -- Occupied --
-19.157 -10.258 -10.243 -10.220 -10.211 -10.204 -10.200 -10.198
-10.196 -10.187 -10.187 -10.186 -10.183 -10.181 -10.177 -10.172
-10.168  -0.969  -0.830  -0.815  -0.767  -0.759  -0.742  -0.691
 -0.674  -0.661  -0.659  -0.649  -0.606  -0.566  -0.553  -0.539
 -0.508  -0.491  -0.470  -0.456  -0.439  -0.431  -0.425  -0.414
 -0.404  -0.400  -0.397  -0.390  -0.389  -0.373  -0.370  -0.366
 -0.362  -0.355  -0.347  -0.342  -0.333  -0.325  -0.322  -0.315
 -0.304  -0.297  -0.293  -0.288  -0.261  -0.227  -0.212  -0.202
 -- Virtual --
 -0.082  -0.054  -0.018   0.027   0.036   0.047   0.051   0.063
  0.066   0.076   0.077   0.080   0.087   0.097   0.104   0.116
  0.123   0.127   0.132   0.133   0.139   0.145   0.146   0.152
  0.159   0.168   0.173   0.177   0.181   0.183   0.199   0.208
  0.218   0.231   0.241   0.251   0.257   0.263   0.281   0.296
  0.313   0.324   0.347   0.360   0.383   0.400   0.414   0.416
  0.428   0.445   0.448   0.459   0.465   0.475   0.486   0.492
  0.502   0.502   0.517   0.527   0.538   0.543   0.561   0.581
  0.585   0.595   0.598   0.607   0.617   0.621   0.624   0.633
  0.634   0.647   0.651   0.659   0.667   0.670   0.672   0.674
  0.678   0.683   0.687   0.690   0.692   0.698   0.700   0.703
  0.711   0.715   0.719   0.725   0.730   0.730   0.738   0.740
  0.745   0.750   0.763   0.765   0.781   0.786   0.792   0.797
  0.812   0.824   0.835   0.846   0.852   0.865   0.880   0.899
  0.924   0.943   0.973   0.976   0.997   1.013   1.030   1.061
  1.075   1.093   1.120   1.140   1.146   1.183   1.189   1.198
  1.243   1.270   1.310   1.319   1.345   1.355   1.419   1.522
  1.669
 --------------------------------------------------------------
 
          Ground-State Mulliken Net Atomic Charges

     Atom                 Charge (a.u.)
  ----------------------------------------
      1 O                    -0.435200
      2 C                     0.112272
      3 H                     0.104841
      4 C                     0.128821
      5 C                    -0.179134
      6 C                    -0.262684
      7 H                     0.162622
      8 H                     0.112019
      9 H                     0.106239
     10 C                    -0.169012
     11 H                     0.099242
     12 H                     0.109262
     13 C                    -0.146445
     14 H                     0.095926
     15 H                     0.096745
     16 C                    -0.120728
     17 H                     0.090468
     18 H                     0.094723
     19 C                    -0.372172
     20 C                    -0.226024
     21 H                     0.115128
     22 H                     0.114073
     23 H                     0.106652
     24 C                    -0.201358
     25 H                     0.117593
     26 H                     0.114976
     27 H                     0.104704
     28 C                     0.024478
     29 C                    -0.204359
     30 C                    -0.062756
     31 H                     0.093225
     32 C                    -0.079136
     33 H                     0.083466
     34 C                    -0.213369
     35 H                     0.106352
     36 H                     0.110037
     37 C                    -0.268040
     38 H                     0.136903
     39 H                     0.138178
     40 H                     0.134421
     41 H                     0.127052
  ----------------------------------------
  Sum of atomic charges =    -0.000000

 -----------------------------------------------------------------
                    Cartesian Multipole Moments
 -----------------------------------------------------------------
    Charge (ESU x 10^10)
                -0.0000
    Dipole Moment (Debye)
         X      -0.2391      Y      -1.0272      Z       3.2002
       Tot       3.3696
    Quadrupole Moments (Debye-Ang)
        XX    -101.9377     XY      -2.0644     YY    -108.6841
        XZ       3.2467     YZ       5.1970     ZZ    -109.5135
    Octopole Moments (Debye-Ang^2)
       XXX      -1.3767    XXY      -8.3390    XYY     -11.9561
       YYY       7.1371    XXZ      -0.0231    XYZ       2.6923
       YYZ       6.0001    XZZ       6.9812    YZZ      -4.6413
       ZZZ       4.1597
    Hexadecapole Moments (Debye-Ang^3)
      XXXX   -5000.7674   XXXY    -144.4012   XXYY   -1098.6176
      XYYY     -19.0553   YYYY   -1317.8275   XXXZ      32.1907
      XXYZ     -11.8504   XYYZ      20.3226   YYYZ      -0.4462
      XXZZ    -944.9812   XYZZ     -17.5108   YYZZ    -361.5372
      XZZZ      43.5910   YZZZ       5.6877   ZZZZ    -783.2960
 -----------------------------------------------------------------
 Calculating analytic gradient of the SCF energy
 Gradient of SCF Energy
            1           2           3           4           5           6
    1  -0.0322515   0.0215121   0.0028780   0.0031134   0.0003730   0.0001216
    2  -0.0087790   0.0088457   0.0022709  -0.0053169   0.0026352  -0.0004654
    3  -0.0382564  -0.0002097  -0.0027913   0.0007589   0.0003906  -0.0002877
            7           8           9          10          11          12
    1   0.0001171  -0.0000126  -0.0003702   0.0000176   0.0001081   0.0001050
    2   0.0002737  -0.0001658  -0.0000578  -0.0003895  -0.0000372   0.0001493
    3   0.0002721  -0.0000905  -0.0000254   0.0000405  -0.0001571  -0.0000245
           13          14          15          16          17          18
    1   0.0001701   0.0000085  -0.0000497  -0.0000976   0.0000044  -0.0000477
    2  -0.0002193   0.0001143   0.0000095  -0.0001708   0.0000652   0.0002061
    3  -0.0000575  -0.0000256   0.0001080   0.0000107  -0.0000372   0.0000375
           19          20          21          22          23          24
    1  -0.0008279   0.0000557  -0.0000414   0.0001110  -0.0000168  -0.0000573
    2  -0.0006947   0.0000563   0.0000321   0.0002181   0.0000265   0.0002852
    3   0.0004138  -0.0002723  -0.0000455   0.0000690   0.0000636  -0.0001059
           25          26          27          28          29          30
    1   0.0000888   0.0000222  -0.0000283  -0.0266719  -0.0156467   0.0027244
    2  -0.0000485   0.0000116   0.0000031   0.0123144   0.0082636   0.0007620
    3  -0.0000086  -0.0000065   0.0000636  -0.0092777   0.0358137  -0.0037531
           31          32          33          34          35          36
    1   0.0003617  -0.0002853  -0.0000249   0.0000992  -0.0000099  -0.0000116
    2   0.0001168   0.0004287   0.0000682  -0.0000502  -0.0001207   0.0000570
    3   0.0002790   0.0008031  -0.0000698  -0.0004358   0.0000043  -0.0000249
           37          38          39          40          41
    1   0.0035018  -0.0005593   0.0000851  -0.0002450   0.0416767
    2  -0.0039227  -0.0001796   0.0003529   0.0002491  -0.0171965
    3  -0.0006864   0.0006956   0.0000918  -0.0001700   0.0169025
 Max gradient component =       4.168E-02
 RMS gradient           =       8.119E-03
 Gradient time:  CPU 1429.79 s  wall 240.44 s
 Geometry Optimization Parameters
   NAtoms,    NIC,     NZ,  NCons,   NDum,   NFix, NCnnct, MaxDiis
       41     299       0       0       0       0       0       0

 Cartesian Hessian Update
 Hessian Updated using BFGS Update


** GEOMETRY OPTIMIZATION IN DELOCALIZED INTERNAL COORDINATES **
   Searching for a Minimum

   Optimization Cycle:   3

                       Coordinates (Angstroms)
     ATOM                X               Y               Z
      1  O         0.5213067409    1.3330589744   -1.7940574577
      2  C         0.1797364263    0.3692792564   -0.7412174077
      3  H         0.6870606852   -0.5780211871   -0.9774671872
      4  C        -1.2385165165    0.1339980744   -0.3150951544
      5  C        -2.0804660143    1.1568764723   -0.0037286037
      6  C        -1.7393971167    2.6133101017   -0.1632318681
      7  H        -0.8337644159    2.7808334972   -0.7565963388
      8  H        -2.5753254985    3.1333014976   -0.6675890861
      9  H        -1.6317525622    3.1001752690    0.8253905973
     10  C        -3.4678686299    0.9198886904    0.5452525231
     11  H        -3.6690708723    1.6737135327    1.3300812384
     12  H        -4.2130688162    1.1302103196   -0.2509956175
     13  C        -3.6674185849   -0.4931251302    1.0840449960
     14  H        -4.7312356574   -0.6728229910    1.3116380439
     15  H        -3.1182235882   -0.6126499297    2.0365625605
     16  C        -3.1574945782   -1.4901689430    0.0507586459
     17  H        -3.3636487792   -2.5323550090    0.3530411894
     18  H        -3.7018321653   -1.3233340707   -0.8993218968
     19  C        -1.6431203789   -1.3451987726   -0.2188303089
     20  C        -0.8425817409   -2.0277502790    0.9116547543
     21  H        -1.0949662988   -1.6004212570    1.8973191513
     22  H         0.2455564809   -1.9101491323    0.7647570342
     23  H        -1.0575562933   -3.1106454837    0.9399667115
     24  C        -1.3489348475   -2.0739460632   -1.5490596498
     25  H        -0.2712792641   -2.1682352416   -1.7561932693
     26  H        -1.8162560088   -1.5453508411   -2.3971836890
     27  H        -1.7635960041   -3.0965702397   -1.5084657268
     28  C         1.1336525324    1.2360060531   -0.0631267196
     29  C         2.3553325080    0.6042971128    0.5453776916
     30  C         3.4265991225    0.2224898337   -0.2080311631
     31  H         3.3681359373    0.4179052899   -1.2845017361
     32  C         4.6524588863   -0.3924174683    0.2617216380
     33  H         4.7548522758   -0.5728837875    1.3367037073
     34  C         5.6700375633   -0.7485469785   -0.5546667880
     35  H         6.5824167842   -1.2108244073   -0.1714248952
     36  H         5.6145690444   -0.5868503537   -1.6357769758
     37  C         2.2236261718    0.4444069550    2.0338377650
     38  H         3.0488244338   -0.1408953438    2.4606632851
     39  H         1.2759420638   -0.0607053117    2.2949040589
     40  H         2.2031763116    1.4253672737    2.5469413665
     41  H         1.1258581293    2.1092952879    0.5953844803
   Point Group: c1    Number of degrees of freedom:   117


   Energy is   -698.468044785

 Hessian Updated using BFGS Update

106 Hessian modes will be used to form the next step
  Hessian Eigenvalues:
     0.003199    0.003225    0.003353    0.005209    0.008377    0.008401
     0.008948    0.009135    0.009982    0.010524    0.011528    0.011753
     0.015242    0.015800    0.015921    0.021824    0.022391    0.025218
     0.027772    0.028759    0.028767    0.030398    0.032177    0.043450
     0.048189    0.049687    0.051046    0.051778    0.053064    0.053465
     0.054362    0.055169    0.056474    0.059843    0.068936    0.069059
     0.070080    0.073597    0.075420    0.078368    0.078923    0.083187
     0.083996    0.096825    0.098664    0.121082    0.130003    0.133998
     0.153904    0.159986    0.159999    0.160004    0.160103    0.160878
     0.161548    0.188658    0.210262    0.219984    0.220004    0.230081
     0.239656    0.249926    0.249956    0.251698    0.267436    0.271564
     0.280641    0.281305    0.281644    0.287471    0.294788    0.306723
     0.313065    0.317687    0.321974    0.325449    0.328608    0.329282
     0.329729    0.329854    0.329890    0.330088    0.330188    0.330356
     0.331748    0.332224    0.332255    0.332276    0.333075    0.333444
     0.334160    0.335389    0.337899    0.338555    0.340744    0.342114
     0.342519    0.342687    0.342751    0.345416    0.365104    0.383712
     0.505512    0.519512    0.545936    0.931029

 Minimum Search - Taking Simple RFO Step
 Searching for Lamda that Minimizes Along All modes
 Value Taken    Lamda =  -0.10873683
 Calculated Step too Large.  Step scaled by  0.334078
 Step Taken.  Stepsize is  0.300000

                             Maximum     Tolerance    Cnvgd?
         Gradient           0.044745      0.000300      NO
         Displacement       0.111792      0.001200      NO
         Energy change     -0.038511      0.000001      NO


 New Cartesian Coordinates Obtained by Inverse Iteration

 Displacement from previous Coordinates is:  1.033854
 ----------------------------------------------------------------
             Standard Nuclear Orientation (Angstroms)
    I     Atom           X                Y                Z
 ----------------------------------------------------------------
    1      O       0.6819063578     1.3157940657    -1.6050062982
    2      C       0.1852553595     0.3350129841    -0.6559585832
    3      H       0.6773284581    -0.6254111029    -0.8714421196
    4      C      -1.2510111534     0.1166022611    -0.2796591795
    5      C      -2.0901161461     1.1472303947     0.0083457552
    6      C      -1.7219066868     2.5985210889    -0.1351087490
    7      H      -0.7947506702     2.7514647849    -0.6988306274
    8      H      -2.5325584886     3.1334069727    -0.6646254772
    9      H      -1.6378983663     3.0813979669     0.8578894569
   10      C      -3.4980594601     0.9267691049     0.5101536894
   11      H      -3.7157566507     1.6798532424     1.2914901317
   12      H      -4.2140102743     1.1496813377    -0.3092188324
   13      C      -3.7325674710    -0.4860575720     1.0351611493
   14      H      -4.8054619747    -0.6536970954     1.2267287488
   15      H      -3.2165750042    -0.6167847034     2.0045550732
   16      C      -3.2008911808    -1.4847912814     0.0142799902
   17      H      -3.4296115019    -2.5257753057     0.3045681222
   18      H      -3.7113978269    -1.3071867726    -0.9524718162
   19      C      -1.6765459635    -1.3577857856    -0.2044996829
   20      C      -0.9231229312    -2.0557672157     0.9490843290
   21      H      -1.2030118848    -1.6297322992     1.9279315217
   22      H       0.1706886535    -1.9519069397     0.8396104145
   23      H      -1.1529250159    -3.1359016215     0.9646044130
   24      C      -1.3476850129    -2.0849176747    -1.5275903263
   25      H      -0.2652063115    -2.1924422903    -1.6995749622
   26      H      -1.7799513116    -1.5468902938    -2.3882380988
   27      H      -1.7765218572    -3.1022405059    -1.5053916396
   28      C       1.1409158110     1.1999867087    -0.0371098009
   29      C       2.3973488502     0.6011462594     0.5366039804
   30      C       3.4579466682     0.2274228884    -0.2344903433
   31      H       3.3697087282     0.4032140316    -1.3125649641
   32      C       4.7070185396    -0.3559248933     0.2148369920
   33      H       4.8385426320    -0.5163132230     1.2898560837
   34      C       5.7121210670    -0.7060252166    -0.6193555930
   35      H       6.6422410387    -1.1437396977    -0.2502928066
   36      H       5.6283506664    -0.5636982616    -1.7013217470
   37      C       2.2995900218     0.4655519136     2.0302647258
   38      H       3.1464075717    -0.0961142813     2.4462958919
   39      H       1.3680302824    -0.0538394170     2.3198142109
   40      H       2.2709152692     1.4540324443     2.5283110135
   41      H       1.0249946350     2.1164002704     0.5618058531
 ----------------------------------------------------------------
 Molecular Point Group                 C1    NOp =  1
 Largest Abelian Subgroup              C1    NOp =  1
 Nuclear Repulsion Energy =  1235.6598553982 hartrees
 There are       64 alpha and       64 beta electrons
 Applying Cartesian multipole field
    Component          Value
    ---------          -----
     (2,0,0)        1.00000E-12
     (0,2,0)        2.00000E-11
     (0,0,2)       -3.00000E-11
 Nucleus-field energy     =     0.0000000069 hartrees
 Requested basis set is VDZ
 There are 133 shells and 201 basis functions
 A cutoff of  1.0D-11 yielded   7345 shell pairs
 There are     17229 function pairs
 Smallest overlap matrix eigenvalue = 8.15E-04
 Guess MOs from SCF MO coefficient file

 -----------------------------------------------------------------------
  General SCF calculation program by
  Eric Jon Sundstrom, Paul Horn, Yuezhi Mao, Dmitri Zuev, Alec White,
  David Stuck, Shaama M.S., Shane Yost, Joonho Lee, David Small,
  Daniel Levine, Susi Lehtola, Hugh Burton, Evgeny Epifanovsky
 -----------------------------------------------------------------------
 Exchange:  B97M-V      Correlation:  B97M-V
 Using SG-2 standard quadrature grid
 Nonlocal Correlation:  rVV10 with C = 0.0100 and b = 6.00 and scale = 1.00000
 Grid used for NLC:  SG-1 standard quadrature
 using 8 threads for integral computing
 -------------------------------------------------------
 OpenMP Integral computing Module                
 Release: version 1.0, May 2013, Q-Chem Inc. Pittsburgh 
 -------------------------------------------------------
 -------------------------------------------------------
 OpenMP BLAS3 based DFT computing Module                
 Release: version 1.0, May 2013, Q-Chem Inc. Pittsburgh 
 -------------------------------------------------------
 -------------------------------------------------------
 OpenMP BLAS3 based DFT computing Module                
 Release: version 1.0, May 2013, Q-Chem Inc. Pittsburgh 
 -------------------------------------------------------
 -------------------------------------------------------
 OpenMP BLAS3 based DFT computing Module                
 Release: version 1.0, May 2013, Q-Chem Inc. Pittsburgh 
 -------------------------------------------------------
 Nonlocal correlation = 0.468172888883
 A restricted SCF calculation will be
 performed using DIIS
 SCF converges when DIIS error is below 1.0e-08
 ---------------------------------------
  Cycle       Energy         DIIS error
 ---------------------------------------
 Nonlocal correlation = 4.683997917887e-01
    1    -698.4784677551      1.39e-03  
 Nonlocal correlation = 4.681618003722e-01
    2    -698.4994981465      3.75e-04  
 Nonlocal correlation = 4.683118416196e-01
    3    -698.4969880655      8.12e-04  
 Nonlocal correlation = 4.683126958874e-01
    4    -698.5000850619      1.30e-04  
 Nonlocal correlation = 4.683147159443e-01
    5    -698.5001764743      2.09e-05  
 Nonlocal correlation = 4.683138951041e-01
    6    -698.5001776670      1.68e-05  
 Nonlocal correlation = 4.683132069484e-01
    7    -698.5001793259      2.40e-06  
 Nonlocal correlation = 4.683134110821e-01
    8    -698.5001793582      9.22e-07  
 Nonlocal correlation = 4.683134359783e-01
    9    -698.5001793623      4.00e-07  
 Nonlocal correlation = 4.683134254566e-01
   10    -698.5001793632      1.19e-07  
 Nonlocal correlation = 4.683134224273e-01
   11    -698.5001793633      2.93e-08  
 Nonlocal correlation = 4.683134237242e-01
   12    -698.5001793633      1.23e-08  
   13    -698.5001793633      3.15e-09  Convergence criterion met
 ---------------------------------------
 SCF time:   CPU 6988.84s  wall 875.00s 
 SCF   energy in the final basis set =     -698.5001793633
 Total energy in the final basis set =     -698.5001793633
 
 --------------------------------------------------------------
 
                    Orbital Energies (a.u.)
 --------------------------------------------------------------
 
 Alpha MOs
 -- Occupied --
-19.167 -10.250 -10.242 -10.215 -10.212 -10.199 -10.198 -10.197
-10.192 -10.191 -10.187 -10.184 -10.183 -10.182 -10.178 -10.173
-10.172  -1.016  -0.832  -0.807  -0.769  -0.753  -0.744  -0.686
 -0.670  -0.660  -0.658  -0.650  -0.607  -0.566  -0.554  -0.539
 -0.506  -0.493  -0.474  -0.457  -0.436  -0.432  -0.425  -0.412
 -0.405  -0.402  -0.396  -0.392  -0.386  -0.375  -0.372  -0.368
 -0.358  -0.354  -0.348  -0.343  -0.334  -0.326  -0.323  -0.314
 -0.312  -0.298  -0.296  -0.290  -0.274  -0.236  -0.215  -0.201
 -- Virtual --
 -0.057  -0.021  -0.005   0.028   0.039   0.049   0.053   0.065
  0.069   0.076   0.078   0.082   0.090   0.098   0.104   0.114
  0.124   0.125   0.132   0.133   0.138   0.143   0.149   0.151
  0.159   0.167   0.174   0.177   0.179   0.186   0.202   0.206
  0.218   0.231   0.241   0.249   0.255   0.264   0.284   0.304
  0.320   0.329   0.347   0.361   0.380   0.402   0.415   0.416
  0.430   0.446   0.447   0.458   0.464   0.480   0.483   0.494
  0.502   0.504   0.518   0.529   0.540   0.543   0.555   0.579
  0.583   0.597   0.598   0.610   0.615   0.618   0.619   0.631
  0.633   0.646   0.652   0.658   0.668   0.669   0.672   0.676
  0.680   0.683   0.688   0.691   0.691   0.699   0.699   0.704
  0.710   0.714   0.718   0.723   0.728   0.729   0.739   0.741
  0.744   0.752   0.762   0.765   0.780   0.783   0.789   0.800
  0.807   0.826   0.834   0.842   0.847   0.861   0.877   0.896
  0.924   0.950   0.971   0.986   1.007   1.012   1.034   1.058
  1.089   1.099   1.119   1.140   1.159   1.178   1.191   1.195
  1.245   1.261   1.311   1.331   1.343   1.381   1.414   1.527
  1.686
 --------------------------------------------------------------
 
          Ground-State Mulliken Net Atomic Charges

     Atom                 Charge (a.u.)
  ----------------------------------------
      1 O                    -0.449614
      2 C                     0.090819
      3 H                     0.107227
      4 C                     0.137987
      5 C                    -0.189842
      6 C                    -0.265791
      7 H                     0.163625
      8 H                     0.113218
      9 H                     0.110212
     10 C                    -0.168160
     11 H                     0.099866
     12 H                     0.109383
     13 C                    -0.147232
     14 H                     0.096527
     15 H                     0.098251
     16 C                    -0.120531
     17 H                     0.091452
     18 H                     0.094724
     19 C                    -0.375277
     20 C                    -0.223384
     21 H                     0.113707
     22 H                     0.114352
     23 H                     0.106970
     24 C                    -0.201973
     25 H                     0.118286
     26 H                     0.114383
     27 H                     0.105282
     28 C                     0.035315
     29 C                    -0.141231
     30 C                    -0.081339
     31 H                     0.091621
     32 C                    -0.076894
     33 H                     0.082842
     34 C                    -0.215022
     35 H                     0.104932
     36 H                     0.108246
     37 C                    -0.270446
     38 H                     0.130943
     39 H                     0.132380
     40 H                     0.131848
     41 H                     0.122338
  ----------------------------------------
  Sum of atomic charges =    -0.000000

 -----------------------------------------------------------------
                    Cartesian Multipole Moments
 -----------------------------------------------------------------
    Charge (ESU x 10^10)
                -0.0000
    Dipole Moment (Debye)
         X      -0.7974      Y      -0.8672      Z       2.7579
       Tot       2.9990
    Quadrupole Moments (Debye-Ang)
        XX    -103.1363     XY      -2.3069     YY    -108.1112
        XZ       3.1100     YZ       4.4992     ZZ    -108.9082
    Octopole Moments (Debye-Ang^2)
       XXX     -10.0651    XXY      -7.7233    XYY     -14.4770
       YYY       9.2833    XXZ      -0.1464    XYZ       2.8127
       YYZ       3.7183    XZZ       5.2805    YZZ      -2.5197
       ZZZ      -2.2898
    Hexadecapole Moments (Debye-Ang^3)
      XXXX   -5145.0250   XXXY    -159.5034   XXYY   -1122.5747
      XYYY     -39.2203   YYYY   -1307.8523   XXXZ      47.3398
      XXYZ     -12.5415   XYYZ      22.8360   YYYZ     -10.5807
      XXZZ    -962.6845   XYZZ     -23.6362   YYZZ    -353.1023
      XZZZ      49.3220   YZZZ      -6.6128   ZZZZ    -748.7037
 -----------------------------------------------------------------
 Calculating analytic gradient of the SCF energy
 Gradient of SCF Energy
            1           2           3           4           5           6
    1  -0.0282947   0.0354195   0.0042590   0.0007136   0.0015044   0.0005511
    2  -0.0132375   0.0428056   0.0014445  -0.0102537   0.0021685  -0.0002294
    3  -0.0243814  -0.0021912  -0.0006304   0.0035422   0.0001525   0.0000779
            7           8           9          10          11          12
    1   0.0005980  -0.0001834  -0.0005400  -0.0001257   0.0001040  -0.0000080
    2  -0.0005931  -0.0002211   0.0000015  -0.0005636   0.0000418   0.0001311
    3   0.0004188  -0.0000724   0.0002477  -0.0001801  -0.0001322   0.0000325
           13          14          15          16          17          18
    1   0.0002081  -0.0000771   0.0000659  -0.0000742  -0.0001174  -0.0001301
    2  -0.0001554   0.0001121   0.0000291  -0.0004393  -0.0000778   0.0001175
    3  -0.0000434   0.0000136   0.0000417   0.0000143  -0.0000369   0.0000075
[...]
    Charge (ESU x 10^10)
                 0.0000
    Dipole Moment (Debye)
         X      -1.2549      Y      -1.0389      Z       2.0904
       Tot       2.6502
    Quadrupole Moments (Debye-Ang)
        XX    -103.8569     XY      -2.8099     YY    -108.5517
        XZ       3.1933     YZ       3.4236     ZZ    -106.7489
    Octopole Moments (Debye-Ang^2)
       XXX     -13.3164    XXY      -6.0497    XYY     -19.3017
       YYY       8.3744    XXZ      -1.8322    XYZ       2.9367
       YYZ      -1.5580    XZZ       4.9230    YZZ       2.3396
       ZZZ     -17.5965
    Hexadecapole Moments (Debye-Ang^3)
      XXXX   -5376.7766   XXXY    -209.2676   XXYY   -1175.1538
      XYYY    -115.7664   YYYY   -1284.3939   XXXZ      35.6141
      XXYZ     -11.4964   XYYZ      13.6243   YYYZ     -27.5554
      XXZZ   -1006.6070   XYZZ     -43.4013   YYZZ    -343.4086
      XZZZ      17.1575   YZZZ     -26.5208   ZZZZ    -734.0983
 -----------------------------------------------------------------
 Calculating analytic gradient of the SCF energy
 Gradient of SCF Energy
            1           2           3           4           5           6
    1   0.0000277  -0.0001121  -0.0000260  -0.0000077   0.0000140   0.0000120
    2   0.0000383  -0.0001399   0.0000107   0.0000099   0.0000012  -0.0000164
    3  -0.0000215   0.0000123  -0.0000269  -0.0000164   0.0000304   0.0000329
            7           8           9          10          11          12
    1  -0.0000039  -0.0000036  -0.0000063   0.0000061   0.0000058  -0.0000089
    2   0.0000111   0.0000111   0.0000006   0.0000037  -0.0000027   0.0000014
    3   0.0000152   0.0000043   0.0000083   0.0000218   0.0000193   0.0000210
           13          14          15          16          17          18
    1  -0.0000044   0.0000048   0.0000087   0.0000024   0.0000005  -0.0000033
    2  -0.0000001   0.0000008  -0.0000046  -0.0000113   0.0000009   0.0000071
    3   0.0000171   0.0000195   0.0000126   0.0000056   0.0000024   0.0000093
           19          20          21          22          23          24
    1   0.0000010  -0.0000005   0.0000069  -0.0000014   0.0000025  -0.0000102
    2   0.0000145  -0.0000183  -0.0000053  -0.0000075  -0.0000010   0.0000063
    3  -0.0000120   0.0000078  -0.0000013  -0.0000033  -0.0000070  -0.0000012
           25          26          27          28          29          30
    1  -0.0000117  -0.0000098  -0.0000074   0.0000740  -0.0000121  -0.0000298
    2   0.0000091   0.0000112   0.0000053   0.0000996   0.0000230   0.0000341
    3  -0.0000114  -0.0000020  -0.0000060  -0.0000334   0.0000268  -0.0000009
           31          32          33          34          35          36
    1  -0.0000090   0.0000056   0.0000041  -0.0000019  -0.0000056  -0.0000115
    2  -0.0000024   0.0000024  -0.0000112   0.0000129  -0.0000026   0.0000023
    3  -0.0000066  -0.0000096  -0.0000257  -0.0000214  -0.0000302  -0.0000208
           37          38          39          40          41
    1   0.0000211   0.0000030  -0.0000027   0.0000138   0.0000764
    2  -0.0000201  -0.0000183  -0.0000041  -0.0000107  -0.0000401
    3  -0.0000225  -0.0000064  -0.0000037   0.0000003   0.0000227
 Max gradient component =       1.399E-04
 RMS gradient           =       2.517E-05
 Gradient time:  CPU 1426.35 s  wall 238.73 s
 Geometry Optimization Parameters
   NAtoms,    NIC,     NZ,  NCons,   NDum,   NFix, NCnnct, MaxDiis
       41     299       0       0       0       0       0       0

 Cartesian Hessian Update
 Hessian Updated using BFGS Update


** GEOMETRY OPTIMIZATION IN DELOCALIZED INTERNAL COORDINATES **
   Searching for a Minimum

   Optimization Cycle:  18

                       Coordinates (Angstroms)
     ATOM                X               Y               Z
      1  O         0.9084727446    1.2739840748   -1.0612335654
      2  C         0.2242718739    0.1133686569   -0.4071382152
      3  H         0.6881690987   -0.8208964732   -0.7315828538
      4  C        -1.2514020764    0.0498603224   -0.2281281036
      5  C        -2.0619322299    1.1329555057   -0.0728418322
      6  C        -1.6281584805    2.5703653044   -0.1990366899
      7  H        -0.6395370048    2.6856998177   -0.6550116422
      8  H        -2.3595416799    3.1224441424   -0.8186830992
      9  H        -1.6371452066    3.0674147494    0.7901584113
     10  C        -3.5313107916    0.9994813917    0.2593544402
     11  H        -3.7990420852    1.7947036513    0.9808348473
     12  H        -4.1294096419    1.2240049416   -0.6492281835
     13  C        -3.9077887007   -0.3744312664    0.8000724071
     14  H        -5.0031796044   -0.4778787784    0.8688369742
     15  H        -3.5161360840   -0.4951468982    1.8269223874
     16  C        -3.3190889748   -1.4339194595   -0.1210342535
     17  H        -3.6391158831   -2.4509850336    0.1675556474
     18  H        -3.7001339912   -1.2613351282   -1.1463001630
     19  C        -1.7755037751   -1.3996265637   -0.1616593227
     20  C        -1.2038259132   -2.0966343829    1.0921259607
     21  H        -1.5524554647   -1.6080037155    2.0176783664
     22  H        -0.1002382580   -2.0744116012    1.0982463540
     23  H        -1.5149129322   -3.1559699591    1.1199601538
     24  C        -1.3504015020   -2.1996396553   -1.4139404000
     25  H        -0.2695432085   -2.4058891403   -1.4500082184
     26  H        -1.6293227530   -1.6630840066   -2.3366834789
     27  H        -1.8655735938   -3.1761939425   -1.4159610274
     28  C         1.1567332290    0.9925532603    0.3695218463
     29  C         2.5152627658    0.5457389593    0.7565715713
     30  C         3.4471893615    0.2943819948   -0.2020353720
     31  H         3.1441444109    0.4759741242   -1.2388785098
     32  C         4.8030459973   -0.1726840902    0.0028284136
     33  H         5.1342136755   -0.3447272046    1.0324241254
     34  C         5.6758050010   -0.4045370716   -1.0038623511
     35  H         6.6936136475   -0.7527086590   -0.8158907347
     36  H         5.3923544585   -0.2493460118   -2.0497925757
     37  C         2.7126589487    0.3931148197    2.2373173107
     38  H         3.7304473885    0.0784785602    2.5022947362
     39  H         2.0089865328   -0.3489644830    2.6605106512
     40  H         2.5093793866    1.3458619736    2.7606766059
     41  H         0.6817187805    1.7171725446    1.0444792807
   Point Group: c1    Number of degrees of freedom:   117


   Energy is   -698.529665588

 Hessian Updated using BFGS Update

117 Hessian modes will be used to form the next step
  Hessian Eigenvalues:
     0.001194    0.003344    0.003359    0.005403    0.006121    0.008049
     0.008529    0.010697    0.011624    0.015084    0.015655    0.018763
     0.019043    0.021822    0.022476    0.023314    0.027876    0.028768
     0.029112    0.030639    0.031579    0.036683    0.043504    0.046496
     0.048737    0.049778    0.053025    0.053573    0.054432    0.055171
     0.056443    0.059095    0.060315    0.069288    0.069710    0.069958
     0.073583    0.075580    0.078486    0.079420    0.084029    0.096818
     0.099250    0.117035    0.121524    0.136691    0.143871    0.146502
     0.157925    0.159389    0.159912    0.159974    0.159990    0.160000
     0.160000    0.160002    0.160012    0.160041    0.160130    0.160184
     0.160517    0.161218    0.162481    0.162930    0.164862    0.189431
     0.208813    0.219948    0.223312    0.230580    0.250643    0.257337
     0.259020    0.263965    0.272284    0.281070    0.281726    0.287528
     0.293720    0.302569    0.307260    0.313307    0.317472    0.323802
     0.325452    0.328606    0.329234    0.329653    0.329816    0.329974
     0.330125    0.330259    0.331801    0.332030    0.332248    0.332272
     0.332552    0.333085    0.333485    0.334164    0.336204    0.338548
     0.341172    0.342110    0.342574    0.342747    0.345416    0.351338
     0.358723    0.366823    0.383894    0.459761    0.489251    0.545687
     0.588868    0.698618    0.884395

 Minimum Search - Taking Simple RFO Step
 Searching for Lamda that Minimizes Along All modes
 Value Taken    Lamda =   0.00000000
 Step Taken.  Stepsize is  0.007900

                             Maximum     Tolerance    Cnvgd?
         Gradient           0.000087      0.000300     YES
         Displacement       0.002853      0.001200      NO
         Energy change     -0.000001      0.000001     YES

 Final energy is   -698.529665588466     


 ******************************
 **  OPTIMIZATION CONVERGED  **
 ******************************

                       Coordinates (Angstroms)
     ATOM                X               Y               Z
      1  O         0.9084727446    1.2739840748   -1.0612335654
      2  C         0.2242718739    0.1133686569   -0.4071382152
      3  H         0.6881690987   -0.8208964732   -0.7315828538
      4  C        -1.2514020764    0.0498603224   -0.2281281036
      5  C        -2.0619322299    1.1329555057   -0.0728418322
      6  C        -1.6281584805    2.5703653044   -0.1990366899
      7  H        -0.6395370048    2.6856998177   -0.6550116422
      8  H        -2.3595416799    3.1224441424   -0.8186830992
      9  H        -1.6371452066    3.0674147494    0.7901584113
     10  C        -3.5313107916    0.9994813917    0.2593544402
     11  H        -3.7990420852    1.7947036513    0.9808348473
     12  H        -4.1294096419    1.2240049416   -0.6492281835
     13  C        -3.9077887007   -0.3744312664    0.8000724071
     14  H        -5.0031796044   -0.4778787784    0.8688369742
     15  H        -3.5161360840   -0.4951468982    1.8269223874
     16  C        -3.3190889748   -1.4339194595   -0.1210342535
     17  H        -3.6391158831   -2.4509850336    0.1675556474
     18  H        -3.7001339912   -1.2613351282   -1.1463001630
     19  C        -1.7755037751   -1.3996265637   -0.1616593227
     20  C        -1.2038259132   -2.0966343829    1.0921259607
     21  H        -1.5524554647   -1.6080037155    2.0176783664
     22  H        -0.1002382580   -2.0744116012    1.0982463540
     23  H        -1.5149129322   -3.1559699591    1.1199601538
     24  C        -1.3504015020   -2.1996396553   -1.4139404000
     25  H        -0.2695432085   -2.4058891403   -1.4500082184
     26  H        -1.6293227530   -1.6630840066   -2.3366834789
     27  H        -1.8655735938   -3.1761939425   -1.4159610274
     28  C         1.1567332290    0.9925532603    0.3695218463
     29  C         2.5152627658    0.5457389593    0.7565715713
     30  C         3.4471893615    0.2943819948   -0.2020353720
     31  H         3.1441444109    0.4759741242   -1.2388785098
     32  C         4.8030459973   -0.1726840902    0.0028284136
     33  H         5.1342136755   -0.3447272046    1.0324241254
     34  C         5.6758050010   -0.4045370716   -1.0038623511
     35  H         6.6936136475   -0.7527086590   -0.8158907347
     36  H         5.3923544585   -0.2493460118   -2.0497925757
     37  C         2.7126589487    0.3931148197    2.2373173107
     38  H         3.7304473885    0.0784785602    2.5022947362
     39  H         2.0089865328   -0.3489644830    2.6605106512
     40  H         2.5093793866    1.3458619736    2.7606766059
     41  H         0.6817187805    1.7171725446    1.0444792807

Z-matrix Print:
$molecule
0 1
O 
C  1 1.479154
H  2 1.098308 1 113.348070
C  2 1.481571 1 117.643953 3 -139.547822 0
C  4 1.360366 2 119.986604 1 -5.779376 0
H  5 1.095379 4 116.542040 2 2.178334 0
C  5 1.448609 4 126.949633 2 -178.618228 0
H  7 1.095143 5 117.816611 4 -0.230420 0
C  7 1.352365 5 123.644678 4 179.838206 0
H  9 1.092012 7 121.872571 5 179.736296 0
H  9 1.094714 7 121.319905 5 -0.177612 0
C  1 1.497665 2 60.447430 3 -107.545587 0
H  12 1.092390 1 109.819321 2 -105.631938 0
C  12 1.487848 1 122.597384 2 114.823768 0
C  14 1.361678 12 124.760116 1 -29.598160 0
C  4 1.501622 2 114.129584 1 175.157584 0
H  16 1.097772 4 112.894203 2 -178.997089 0
H  16 1.105873 4 110.790099 2 -58.180667 0
H  16 1.106765 4 111.199981 2 59.743593 0
C  15 1.506729 14 125.303066 12 6.752243 0
H  20 1.094800 15 113.288044 14 13.240180 0
H  20 1.106198 15 109.432020 14 133.975668 0
H  20 1.107089 15 110.557191 14 -109.965498 0
C  15 1.512363 14 122.220250 12 -172.990368 0
H  24 1.106613 15 108.351644 14 140.779672 0
H  24 1.110700 15 109.005557 14 -105.547467 0
C  24 1.523728 15 113.426960 14 17.176317 0
H  27 1.102412 24 110.624984 15 -170.640925 0
H  27 1.105615 24 109.907872 15 72.048221 0
C  27 1.522340 24 108.497983 15 -48.784958 0
H  30 1.104592 27 111.758462 24 -174.638521 0
H  30 1.107317 27 108.583259 24 -57.332342 0
C  14 1.542761 12 112.471550 1 153.414689 0
C  33 1.544219 14 109.468754 12 64.314785 0
H  34 1.103154 33 111.363472 14 63.333315 0
H  34 1.103828 33 111.440767 14 -56.829489 0
H  34 1.104419 33 110.433846 14 -176.246386 0
C  33 1.545620 14 110.975230 12 -55.799182 0
H  38 1.100952 33 113.174080 14 69.559227 0
H  38 1.103242 33 110.878594 14 -52.204306 0
H  38 1.104113 33 109.326692 14 -171.290621 0
$end

 
 --------------------------------------------------------------
 
                    Orbital Energies (a.u.)
 --------------------------------------------------------------
 
 Alpha MOs
 -- Occupied --
-19.168 -10.247 -10.247 -10.214 -10.206 -10.201 -10.195 -10.194
-10.190 -10.187 -10.185 -10.183 -10.182 -10.181 -10.178 -10.176
-10.170  -1.042  -0.833  -0.799  -0.769  -0.746  -0.744  -0.684
 -0.665  -0.661  -0.650  -0.646  -0.612  -0.567  -0.554  -0.540
 -0.501  -0.491  -0.474  -0.456  -0.437  -0.434  -0.425  -0.410
 -0.405  -0.401  -0.395  -0.391  -0.382  -0.377  -0.371  -0.368
 -0.362  -0.350  -0.347  -0.345  -0.333  -0.329  -0.322  -0.315
 -0.313  -0.299  -0.292  -0.291  -0.283  -0.242  -0.216  -0.196
 -- Virtual --
 -0.058  -0.021   0.027   0.041   0.045   0.053   0.064   0.067
  0.073   0.080   0.081   0.088   0.090   0.094   0.105   0.109
  0.120   0.128   0.132   0.136   0.145   0.151   0.151   0.159
  0.163   0.165   0.174   0.178   0.181   0.190   0.203   0.209
  0.227   0.231   0.233   0.247   0.250   0.266   0.280   0.307
  0.319   0.328   0.349   0.370   0.375   0.401   0.414   0.423
  0.432   0.448   0.456   0.459   0.460   0.476   0.493   0.495
  0.503   0.511   0.513   0.522   0.532   0.541   0.548   0.574
  0.578   0.593   0.600   0.603   0.613   0.616   0.621   0.630
  0.642   0.645   0.651   0.662   0.668   0.669   0.670   0.674
  0.680   0.681   0.689   0.689   0.695   0.697   0.701   0.704
  0.711   0.714   0.721   0.723   0.727   0.728   0.729   0.739
  0.745   0.750   0.758   0.760   0.766   0.775   0.791   0.793
  0.800   0.825   0.831   0.840   0.854   0.859   0.875   0.893
  0.923   0.935   0.951   0.980   0.997   1.006   1.065   1.073
  1.081   1.101   1.126   1.143   1.169   1.191   1.206   1.222
  1.246   1.285   1.324   1.335   1.363   1.403   1.428   1.520
  1.675
 --------------------------------------------------------------
 
          Ground-State Mulliken Net Atomic Charges

     Atom                 Charge (a.u.)
  ----------------------------------------
      1 O                    -0.459899
      2 C                     0.025659
      3 H                     0.103630
      4 C                     0.144367
      5 C                    -0.188179
      6 C                    -0.271919
      7 H                     0.170941
      8 H                     0.111945
      9 H                     0.112241
     10 C                    -0.172753
     11 H                     0.100887
     12 H                     0.109655
     13 C                    -0.144360
     14 H                     0.096606
     15 H                     0.099169
     16 C                    -0.121934
     17 H                     0.091576
     18 H                     0.094845
     19 C                    -0.378831
     20 C                    -0.215692
     21 H                     0.111744
     22 H                     0.112094
     23 H                     0.106574
     24 C                    -0.204547
     25 H                     0.118026
     26 H                     0.114459
     27 H                     0.106106
     28 C                     0.083706
     29 C                    -0.061351
     30 C                    -0.109013
     31 H                     0.099696
     32 C                    -0.068096
     33 H                     0.080658
     34 C                    -0.215088
     35 H                     0.103468
     36 H                     0.106378
     37 C                    -0.265452
     38 H                     0.122665
     39 H                     0.126974
     40 H                     0.126043
     41 H                     0.097005
  ----------------------------------------
  Sum of atomic charges =     0.000000

 -----------------------------------------------------------------
                    Cartesian Multipole Moments
 -----------------------------------------------------------------
    Charge (ESU x 10^10)
                 0.0000
    Dipole Moment (Debye)
         X      -1.2549      Y      -1.0389      Z       2.0904
       Tot       2.6502
    Quadrupole Moments (Debye-Ang)
        XX    -103.8569     XY      -2.8099     YY    -108.5517
        XZ       3.1933     YZ       3.4236     ZZ    -106.7489
    Octopole Moments (Debye-Ang^2)
       XXX     -13.3164    XXY      -6.0497    XYY     -19.3017
       YYY       8.3744    XXZ      -1.8322    XYZ       2.9367
       YYZ      -1.5580    XZZ       4.9230    YZZ       2.3396
       ZZZ     -17.5965
    Hexadecapole Moments (Debye-Ang^3)
      XXXX   -5376.7766   XXXY    -209.2676   XXYY   -1175.1538
      XYYY    -115.7664   YYYY   -1284.3939   XXXZ      35.6141
      XXYZ     -11.4964   XYYZ      13.6243   YYYZ     -27.5554
      XXZZ   -1006.6070   XYZZ     -43.4013   YYZZ    -343.4086
      XZZZ      17.1575   YZZZ     -26.5208   ZZZZ    -734.0983
 -----------------------------------------------------------------
Archival summary:
1\1\cub-0-20.local\OPT\ProcedureUnspecified\BasisUnspecified\11624\c295_lal\TueNov2714:58:572018TueNov2714:58:572018\0\\#,OPT,ProcedureUnspecified,BasisUnspecified,\\0,1\O\C,1,1.47915\H,2,1.09831,1,113.348\C,2,1.48157,1,117.644,3,-139.548,0\C,4,1.36037,2,119.987,1,-5.77938,0\H,5,1.09538,4,116.542,2,2.17833,0\C,5,1.44861,4,126.95,2,-178.618,0\H,7,1.09514,5,117.817,4,-0.23042,0\C,7,1.35236,5,123.645,4,179.838,0\H,9,1.09201,7,121.873,5,179.736,0\H,9,1.09471,7,121.32,5,-0.177612,0\C,1,1.49766,2,60.4474,3,-107.546,0\H,12,1.09239,1,109.819,2,-105.632,0\C,12,1.48785,1,122.597,2,114.824,0\C,14,1.36168,12,124.76,1,-29.5982,0\C,4,1.50162,2,114.13,1,175.158,0\H,16,1.09777,4,112.894,2,-178.997,0\H,16,1.10587,4,110.79,2,-58.1807,0\H,16,1.10677,4,111.2,2,59.7436,0\C,15,1.50673,14,125.303,12,6.75224,0\H,20,1.0948,15,113.288,14,13.2402,0\H,20,1.1062,15,109.432,14,133.976,0\H,20,1.10709,15,110.557,14,-109.965,0\C,15,1.51236,14,122.22,12,-172.99,0\H,24,1.10661,15,108.352,14,140.78,0\H,24,1.1107,15,109.006,14,-105.547,0\C,24,1.52373,15,113.427,14,17.1763,0\H,27,1.10241,24,110.625,15,-170.641,0\H,27,1.10562,24,109.908,15,72.0482,0\C,27,1.52234,24,108.498,15,-48.785,0\H,30,1.10459,27,111.758,24,-174.639,0\H,30,1.10732,27,108.583,24,-57.3323,0\C,14,1.54276,12,112.472,1,153.415,0\C,33,1.54422,14,109.469,12,64.3148,0\H,34,1.10315,33,111.363,14,63.3333,0\H,34,1.10383,33,111.441,14,-56.8295,0\H,34,1.10442,33,110.434,14,-176.246,0\C,33,1.54562,14,110.975,12,-55.7992,0\H,38,1.10095,33,113.174,14,69.5592,0\H,38,1.10324,33,110.879,14,-52.2043,0\H,38,1.10411,33,109.327,14,-171.291,0\\\@

 Total job time:  18567.31s(wall), 139594.56s(cpu) 
 Tue Nov 27 14:58:57 2018

        *************************************************************
        *                                                           *
        *  Thank you very much for using Q-Chem.  Have a nice day.  *
        *                                                           *
        *************************************************************


