
Running Job 1 of 1 sys_1_opt_vdz_gga.in
qchem sys_1_opt_vdz_gga.in_11863.0 /scr/c295_lal/137167/qchem11863/ 1
/usr/software/qchem_511/exe/qcprog.exe_s sys_1_opt_vdz_gga.in_11863.0 /scr/c295_lal/137167/qchem11863/
Check license passed

                  Welcome to Q-Chem
     A Quantum Leap Into The Future Of Chemistry


 Q-Chem 5.1, Q-Chem, Inc., Pleasanton, CA (2018)

 Yihan Shao,  Zhengting Gan,  E. Epifanovsky,  A. T. B. Gilbert,  M. Wormit,  
 J. Kussmann,  A. W. Lange,  A. Behn,  Jia Deng,  Xintian Feng,  D. Ghosh,  
 M. Goldey,  P. R. Horn,  L. D. Jacobson,  I. Kaliman,  T. Kus,  A. Landau,  
 Jie Liu,  E. I. Proynov,  R. M. Richard,  R. P. Steele,  E. J. Sundstrom,  
 H. L. Woodcock III,  P. M. Zimmerman,  D. Zuev,  B. Albrecht,  E. Alguire,  
 S. A. Baeppler,  D. Barton,  Z. Benda,  Y. A. Bernard,  E. J. Berquist,  
 K. B. Bravaya,  H. Burton,  D. Casanova,  Chun-Min Chang,  Yunqing Chen,  
 A. Chien,  K. D. Closser,  M. P. Coons,  S. Coriani,  S. Dasgupta,  
 A. L. Dempwolff,  M. Diedenhofen,  Hainam Do,  R. G. Edgar,  Po-Tung Fang,  
 S. Faraji,  S. Fatehi,  Qingguo Feng,  K. D. Fenk,  J. Fosso-Tande,  
 Qinghui Ge,  A. Ghysels,  G. Gidofalvi,  J. Gomes,  J. Gonthier,  A. Gunina,  
 D. Hait,  M. W. D. Hanson-Heine,  P. H. P. Harbach,  A. W. Hauser,  
 J. E. Herr,  E. G. Hohenstein,  Z. C. Holden,  Kerwin Hui,  B. C. Huynh,  
 T.-C. Jagau,  Hyunjun Ji,  B. Kaduk,  K. Khistyaev,  Jaehoon Kim,  
 P. Klunzinger,  K. Koh,  D. Kosenkov,  L. Koulias,  T. Kowalczyk,  
 C. M. Krauter,  A. Kunitsa,  Ka Un Lao,  A. Laurent,  K. V. Lawler,  
 Joonho Lee,  D. Lefrancois,  S. Lehtola,  D. S. Levine,  Yi-Pei Li,  
 You-Sheng Lin,  Fenglai Liu,  E. Livshits,  A. Luenser,  P. Manohar,  
 E. Mansoor,  S. F. Manzer,  Shan-Ping Mao,  Yuezhi Mao,  N. Mardirossian,  
 A. V. Marenich,  T. Markovich,  L. A. Martinez-Martinez,  S. A. Maurer,  
 N. J. Mayhall,  S. C. McKenzie,  J.-M. Mewes,  A. F. Morrison,  
 J. W. Mullinax,  K. Nanda,  T. S. Nguyen-Beck,  R. Olivares-Amaya,  
 J. A. Parkhill,  T. M. Perrine,  F. Plasser,  P. Pokhilko,  S. Prager,  
 A. Prociuk,  E. Ramos,  D. R. Rehn,  F. Rob,  M. Schneider,  N. Sergueev,  
 S. M. Sharada,  S. Sharma,  D. W. Small,  T. Stauch,  T. Stein,  
 Yu-Chuan Su,  A. J. W. Thom,  A. Tkatchenko,  T. Tsuchimochi,  N. M. Tubman,  
 L. Vogt,  M. L. Vidal,  O. Vydrov,  M. A. Watson,  J. Wenzel,  
 M. de Wergifosse,  T. A. Wesolowski,  A. White,  J. Witte,  A. Yamada,  
 Jun Yang,  K. Yao,  S. Yeganeh,  S. R. Yost,  Zhi-Qiang You,  A. Zech,  
 Igor Ying Zhang,  Xing Zhang,  Yan Zhao,  Ying Zhu,  B. R. Brooks,  
 G. K. L. Chan,  C. J. Cramer,  M. S. Gordon,  W. J. Hehre,  A. Klamt,  
 M. W. Schmidt,  C. D. Sherrill,  D. G. Truhlar,  A. Aspuru-Guzik,  R. Baer,  
 A. T. Bell,  N. A. Besley,  Jeng-Da Chai,  A. E. DePrince, III,  
 R. A. DiStasio Jr.,  A. Dreuw,  B. D. Dunietz,  T. R. Furlani,  
 Chao-Ping Hsu,  Yousung Jung,  Jing Kong,  D. S. Lambrecht,  WanZhen Liang,  
 C. Ochsenfeld,  V. A. Rassolov,  L. V. Slipchenko,  J. E. Subotnik,  
 T. Van Voorhis,  J. M. Herbert,  A. I. Krylov,  P. M. W. Gill,  M. Head-Gordon

 Contributors to earlier versions of Q-Chem not listed above: 
 R. D. Adamson,  B. Austin,  J. Baker,  G. J. O. Beran,  K. Brandhorst,  
 S. T. Brown,  E. F. C. Byrd,  A. K. Chakraborty,  C.-L. Cheng,  
 Siu Hung Chien,  D. M. Chipman,  D. L. Crittenden,  H. Dachsel,  
 R. J. Doerksen,  A. D. Dutoi,  L. Fusti-Molnar,  W. A. Goddard III,  
 A. Golubeva-Zadorozhnaya,  S. R. Gwaltney,  G. Hawkins,  A. Heyden,  
 S. Hirata,  G. Kedziora,  F. J. Keil,  C. Kelley,  Jihan Kim,  R. A. King,  
 R. Z. Khaliullin,  P. P. Korambath,  W. Kurlancheek,  A. M. Lee,  M. S. Lee,  
 S. V. Levchenko,  Ching Yeh Lin,  D. Liotard,  R. C. Lochan,  I. Lotan,  
 P. E. Maslen,  N. Nair,  D. P. O'Neill,  D. Neuhauser,  E. Neuscamman,  
 C. M. Oana,  R. Olson,  B. Peters,  R. Peverati,  P. A. Pieniazek,  
 Y. M. Rhee,  J. Ritchie,  M. A. Rohrdanz,  E. Rosta,  N. J. Russ,  
 H. F. Schaefer III,  N. E. Schultz,  N. Shenvi,  A. C. Simmonett,  A. Sodt,  
 D. Stuck,  K. S. Thanthiriwatte,  V. Vanovschi,  Tao Wang,  A. Warshel,  
 C. F. Williams,  Q. Wu,  X. Xu,  W. Zhang

 Please cite Q-Chem as follows:
 Y. Shao et al., Mol. Phys. 113, 184-215 (2015)
 DOI: 10.1080/00268976.2014.952696

 Q-Chem 5.1.1 for Intel X86 EM64T Linux

 Parts of Q-Chem use Armadillo 8.300.2 (Tropical Shenanigans).
 http://arma.sourceforge.net/

 Q-Chem begins on Wed Oct 31 17:51:51 2018  

Host: cub-0-4.local
0

     Scratch files written to /scr/c295_lal/137167/qchem11863//
 Aug318 |scratch|qcdevops|jenkins|workspace|build_RNUM -1
Processing $rem in /usr/software/qchem_511/config/preferences.
 MEM_TOTAL  2000 
Input Ideriv = 2
Curr. Ideriv = -1
Max.  Ideriv = 2

Checking the input file for inconsistencies... 	...done.

--------------------------------------------------------------
User input:
--------------------------------------------------------------
$molecule
2 5
O          1.02812        0.64152        1.64621
O          1.54854        0.99750        2.85653
Fe         0.36161        0.20159        0.22242
N          2.58992        0.38600       -1.06362
C          3.38761       -0.73499       -0.69452
N          2.68765       -1.90507       -0.66591
C          1.25736       -1.63284       -0.97925
C          1.35517       -0.17519       -1.28555
H          0.89269       -2.27281       -1.81134
H          0.52379        0.45136       -1.65646
H          4.46890       -0.66673       -0.45228
H          3.11181       -2.85132       -0.47690
H         -1.84541       -4.43067       -0.83175
C         -1.31568       -3.59359       -0.35347
H         -0.80137       -4.55364        1.56374
N         -0.76217       -3.70176        0.94663
C         -1.03492       -2.31553       -0.78251
C         -0.16172       -2.50864        1.28078
H         -1.29759       -1.83933       -1.73443
N         -0.30666       -1.61172        0.23567
H          0.35050       -2.32140        2.23912
H         -1.71739        1.32429       -2.27222
C         -2.15171        1.10397       -1.28838
H         -1.13277        2.42018        0.02198
N         -1.35089        1.37999       -0.04110
C         -3.36000        0.61851       -0.92035
C         -2.38996        1.05086        1.03281
H         -4.19330        0.29273       -1.56404
N         -3.52768        0.57624        0.55508
H         -2.13309        1.22829        2.09255
$end

$rem
BASIS = VDZ
METHOD  = B3LYP
JOBTYPE = OPT
MAX_SCF_CYCLES = 500
SCF_ALGORITHM = DIIS_GDM
$end
--------------------------------------------------------------
 ----------------------------------------------------------------
             Standard Nuclear Orientation (Angstroms)
    I     Atom           X                Y                Z
 ----------------------------------------------------------------
    1      O       0.6301236838     1.6254776331     1.3692867201
    2      O       0.9916137979     2.2806892576     2.5105386046
    3      Fe      0.1592962288     0.8185852477     0.0305566745
    4      N       2.2641748741     1.4795112884    -1.3058317582
    5      C       3.3486693430     0.7066707218    -0.8001125359
    6      N       3.0261570825    -0.6031760684    -0.5997704082
    7      C       1.5876321291    -0.8127764471    -0.9233971256
    8      C       1.2569152123     0.5525354869    -1.4280550815
    9      H       1.4495894667    -1.6388770832    -1.6537542576
   10      H       0.2867309328     0.8477559167    -1.8672807600
   11      H       4.3548854741     1.1249182811    -0.5876842280
   12      H       3.7067100295    -1.3461210207    -0.2900834172
   13      H      -0.5499961814    -4.3581051190    -0.3420362686
   14      C      -0.3039608434    -3.3447345971     0.0081284862
   15      H       0.4239351128    -3.8393783628     2.0298604132
   16      N       0.2243620838    -3.1062630040     1.3013184424
   17      C      -0.4037654785    -2.1115597548    -0.5965678889
   18      C       0.4360486408    -1.7549205856     1.4587802773
   19      H      -0.7720121009    -1.8685824672    -1.6001963650
   20      N       0.0579214129    -1.0919677942     0.3032538180
   21      H       0.8459266920    -1.2958517846     2.3737117068
   22      H      -2.0964553963     0.9243178603    -2.5591016505
   23      C      -2.4702789142     0.7207376413    -1.5472088784
   24      H      -1.9196534493     2.4451241776    -0.4467573856
   25      N      -1.8182929655     1.3885831879    -0.3631042548
   26      C      -3.4893201071    -0.0467170383    -1.0959322686
   27      C      -2.7395486941     0.9149336273     0.7630483487
   28      H      -4.1725371610    -0.6893015109    -1.6748605606
   29      N      -3.6734628654     0.0638564867     0.3739867633
   30      H      -2.5730903046     1.3027265461     1.7840384201
 ----------------------------------------------------------------
 Molecular Point Group                 C1    NOp =  1
 Largest Abelian Subgroup              C1    NOp =  1
 Nuclear Repulsion Energy =  1793.9952720484 hartrees
 There are       76 alpha and       72 beta electrons
 Requested basis set is VDZ
 There are 118 shells and 198 basis functions

 Total QAlloc Memory Limit   2000 MB
 Mega-Array Size       188 MB
 MEM_STATIC part       192 MB
 A cutoff of  1.0D-12 yielded   6082 shell pairs
 There are     17724 function pairs (     18116 Cartesian)
 
 -------------------------------------------------------
 OpenMP Integral Computing Module                       
 Release: version 1.0, May 2013, Q-Chem Inc. Pittsburgh 
 -------------------------------------------------------
 Integral Job Info:
 Integral job number is                      11
 Integral operator is                         1
 short-range coefficients                     0
 long-range coefficients              100000000
 Omega coefficients                           0
 if combine SR and LR in K                    0
 Integral screening is                        0
 Integral computing path is                   2
 max size of driver memory is            800000
 size of driver memory is                593474
 size of scratch memory is             29634545
 max col of scratch BK array               1296
 max len of scratch array in speh3          155
 max len of scratch index in speh4           18
 max int batch size is                      520
 min int batch size is                       52
 fixed nKL is                                45
 max L of basis functions is                  2
 order of int derivative is                   0
 number of shells is                        118
 number of basis is                         200
 number of cartesian basis is               200
 number of contracted shell pairs          6082
 number of primitive shell pairs          18091
 maxK2 (contraction) of shell pair           36
 max number of K2 of shell pair               1
 max number of CS2 of shell pair           1247
 max number of PS2 of shell pair           3590
 mem total for path MDJ                  571766
 -------------------------------------------------------
 Smallest overlap matrix eigenvalue = 1.71E-03

 Scale SEOQF with 1.000000e-01/1.000000e-01/1.000000e-01

 Standard Electronic Orientation quadrupole field applied
 Nucleus-field energy     =     0.0000000260 hartrees
 Guess from superposition of atomic densities
 Warning:  Energy on first SCF cycle will be non-variational
 SAD guess density has 150.000000 electrons

 -----------------------------------------------------------------------
  General SCF calculation program by
  Eric Jon Sundstrom, Paul Horn, Yuezhi Mao, Dmitri Zuev, Alec White,
  David Stuck, Shaama M.S., Shane Yost, Joonho Lee, David Small,
  Daniel Levine, Susi Lehtola, Hugh Burton, Evgeny Epifanovsky
 -----------------------------------------------------------------------
 Exchange:     0.2000 Hartree-Fock + 0.0800 Slater + 0.7200 B88
 Correlation:  0.1900 VWN1RPA + 0.8100 LYP
 Using SG-1 standard quadrature grid
 using 12 threads for integral computing
 -------------------------------------------------------
 OpenMP Integral computing Module                
 Release: version 1.0, May 2013, Q-Chem Inc. Pittsburgh 
 -------------------------------------------------------
 -------------------------------------------------------
 OpenMP BLAS3 based DFT computing Module                
 Release: version 1.0, May 2013, Q-Chem Inc. Pittsburgh 
 -------------------------------------------------------
 A unrestricted SCF calculation will be
 performed using DIIS, GDM
 SCF converges when RMS gradient is below 1.0e-08
 ---------------------------------------
  Cycle       Energy         DIIS error
 ---------------------------------------
    1   -2095.4158912653      3.66e-02  
    2   -2090.5679698820      4.34e-03  Done DIIS. Switching to GDM
 ---------------------------------------
  Cycle       Energy        RMS Gradient
 ---------------------------------------
    1   -2090.5679698820      6.22e-01   Descent step
    2   -2090.6511674687      7.22e-01   Descent step
    3   -2090.4413577903      1.14e+00  Line search: overstep
    4   -2090.8009297812      1.65e-01   Descent step
    5   -2090.8193424325      4.27e-01   Descent step
    6   -2090.5912494283      1.11e+00  Line search: overstep
    7   -2090.8733576702      1.42e-01   Descent step
    8   -2090.6839026809      4.44e-01  Line search: overstep
    9   -2090.8939669348      1.01e-01   Normal BFGS step
   10   -2090.9130912107      5.99e-02   Normal BFGS step
   11   -2090.9124325126      5.17e-02  Line search: overstep
   12   -2090.9175435048      2.42e-02   Normal BFGS step
   13   -2090.9212117928      2.90e-02   Normal BFGS step
   14   -2090.9233735202      2.93e-02   Normal BFGS step
   15   -2090.9233170984      2.53e-02  Line search: overstep
   16   -2090.9251008013      2.06e-02   Normal BFGS step
   17   -2090.9257596429      9.28e-03   Normal BFGS step
   18   -2090.9262494060      1.25e-02   Normal BFGS step
   19   -2090.9265756655      1.61e-02   Normal BFGS step
   20   -2090.9268871680      5.99e-03   Normal BFGS step
   21   -2090.9271212552      1.01e-02   Normal BFGS step
   22   -2090.9273508628      6.09e-03   Normal BFGS step
   23   -2090.9275012913      5.45e-03   Normal BFGS step
   24   -2090.9275980500      2.59e-03   Normal BFGS step
   25   -2090.9276545497      1.89e-03   Normal BFGS step
   26   -2090.9276750385      1.80e-03   Normal BFGS step
   27   -2090.9276954044      1.31e-03   Normal BFGS step
   28   -2090.9277044188      1.99e-03   Normal BFGS step
   29   -2090.9277089476      1.75e-03   Normal BFGS step
   30   -2090.9277140320      1.29e-03   Normal BFGS step
   31   -2090.9277224727      7.68e-04   Normal BFGS step
   32   -2090.9277230313      8.68e-04   Normal BFGS step
   33   -2090.9277260083      1.84e-04   Normal BFGS step
   34   -2090.9277263191      1.61e-04   Normal BFGS step
   35   -2090.9277266295      2.04e-04   Normal BFGS step
   36   -2090.9277266579      1.40e-04   Normal BFGS step
   37   -2090.9277267385      4.60e-05   Normal BFGS step
   38   -2090.9277267424      4.15e-05   Normal BFGS step
   39   -2090.9277267618      2.50e-05   Normal BFGS step
   40   -2090.9277267635      2.02e-05   Normal BFGS step
   41   -2090.9277267667      1.90e-05   Normal BFGS step
   42   -2090.9277267666      1.93e-05   Normal BFGS step
   43   -2090.9277267681      2.68e-05   Normal BFGS step
   44   -2090.9277267685      1.74e-05   Normal BFGS step
   45   -2090.9277267694      6.15e-06   Normal BFGS step
   46   -2090.9277267694      1.04e-05   Normal BFGS step
   47   -2090.9277267700      7.96e-06   Normal BFGS step
   48   -2090.9277267700      1.21e-05   Normal BFGS step
   49   -2090.9277267705      7.23e-06   Normal BFGS step
   50   -2090.9277267706      5.35e-06   Normal BFGS step
   51   -2090.9277267710      2.29e-06   Normal BFGS step
   52   -2090.9277267710      2.03e-06   Normal BFGS step
   53   -2090.9277267711      1.52e-06   Normal BFGS step
   54   -2090.9277267711      5.97e-07   Normal BFGS step
   55   -2090.9277267711      7.52e-07   Normal BFGS step
   56   -2090.9277267711      3.62e-07   Normal BFGS step
   57   -2090.9277267711      2.84e-07   Normal BFGS step
   58   -2090.9277267711      2.62e-07   Normal BFGS step
   59   -2090.9277267711      2.68e-07   Normal BFGS step
   60   -2090.9277267711      1.92e-07   Normal BFGS step
   61   -2090.9277267711      4.41e-07   Normal BFGS step
   62   -2090.9277267711      4.43e-07   Normal BFGS step
   63   -2090.9277267711      1.96e-07   Normal BFGS step
   64   -2090.9277267711      1.30e-07   Normal BFGS step
   65   -2090.9277267711      6.02e-08   Normal BFGS step
   66   -2090.9277267711      6.56e-08   Normal BFGS step
   67   -2090.9277267711      5.91e-08   Normal BFGS step
   68   -2090.9277267711      6.08e-08   Normal BFGS step
   69   -2090.9277267711      2.44e-08   Normal BFGS step
   70   -2090.9277267711      2.38e-08   Normal BFGS step
   71   -2090.9277267711      1.60e-08   Normal BFGS step
   72   -2090.9277267711      1.43e-08   Normal BFGS step
  /scratch/qcdevops/jenkins/workspace/build_qchem_linux_distrib/tags/qc511/qchem/libgscf/libgscf/opt/gdm.C::WARNING energy changes are now smaller than effective accuracy.
  /scratch/qcdevops/jenkins/workspace/build_qchem_linux_distrib/tags/qc511/qchem/libgscf/libgscf/opt/gdm.C::        calculation will continue, but THRESH should be increased
  /scratch/qcdevops/jenkins/workspace/build_qchem_linux_distrib/tags/qc511/qchem/libgscf/libgscf/opt/gdm.C::        or SCF_CONVERGENCE decreased. 
  /scratch/qcdevops/jenkins/workspace/build_qchem_linux_distrib/tags/qc511/qchem/libgscf/libgscf/opt/gdm.C::        effective_thresh = 5.97e-09
   73   -2090.9277267711      1.06e-08   Normal BFGS step
   74   -2090.9277267711      2.38e-09  Convergence criterion met
 ---------------------------------------
 SCF time:   CPU 1699.84s  wall 142.00s 
<S^2> =          6.306376212
 SCF   energy in the final basis set =    -2090.9277267711
 Total energy in the final basis set =    -2090.9277267711
 
 --------------------------------------------------------------
 
                    Orbital Energies (a.u.)
 --------------------------------------------------------------
 
 Alpha MOs
 -- Occupied --
******* -30.385 -26.260 -26.249 -26.239 -19.512 -19.496 -14.725
-14.719 -14.718 -14.679 -14.654 -14.611 -10.605 -10.599 -10.583
-10.553 -10.548 -10.544 -10.534 -10.503 -10.490  -3.852  -2.648
 -2.630  -2.611  -1.415  -1.351  -1.326  -1.261  -1.217  -1.196
 -1.142  -1.114  -1.083  -1.076  -1.016  -0.959  -0.945  -0.930
 -0.925  -0.886  -0.870  -0.866  -0.851  -0.813  -0.810  -0.803
 -0.791  -0.785  -0.775  -0.766  -0.763  -0.757  -0.754  -0.752
 -0.739  -0.735  -0.717  -0.706  -0.698  -0.687  -0.675  -0.657
 -0.635  -0.628  -0.626  -0.594  -0.588  -0.583  -0.574  -0.569
 -0.539  -0.533  -0.527  -0.522
 -- Virtual --
 -0.438  -0.366  -0.312  -0.302  -0.290  -0.281  -0.245  -0.233
 -0.225  -0.223  -0.206  -0.198  -0.192  -0.178  -0.174  -0.165
 -0.156  -0.151  -0.145  -0.142  -0.137  -0.128  -0.123  -0.113
 -0.109  -0.094  -0.058  -0.050  -0.039  -0.034  -0.020  -0.005
  0.016   0.032   0.045   0.063   0.076   0.082   0.091   0.104
  0.125   0.141   0.156   0.162   0.178   0.181   0.186   0.200
  0.213   0.222   0.223   0.233   0.246   0.249   0.254   0.276
  0.292   0.302   0.331   0.339   0.348   0.357   0.363   0.372
  0.382   0.390   0.396   0.401   0.403   0.412   0.416   0.430
  0.438   0.443   0.451   0.461   0.474   0.483   0.490   0.496
  0.513   0.523   0.549   0.549   0.577   0.584   0.605   0.606
  0.610   0.623   0.626   0.641   0.672   0.685   0.694   0.715
  0.726   0.748   0.758   0.772   0.775   0.788   0.828   0.830
  0.843   0.874   0.904   0.926   0.929   0.950   0.959   0.997
  1.021   1.040   1.056   1.085   1.127   1.139   1.174   1.210
  1.257   1.334
 
 Beta MOs
 -- Occupied --
******* -30.327 -26.208 -26.202 -26.193 -19.496 -19.472 -14.725
-14.721 -14.717 -14.677 -14.652 -14.610 -10.605 -10.602 -10.585
-10.555 -10.548 -10.544 -10.534 -10.503 -10.490  -3.709  -2.495
 -2.480  -2.462  -1.371  -1.352  -1.327  -1.259  -1.219  -1.193
 -1.140  -1.087  -1.078  -1.056  -1.015  -0.960  -0.945  -0.931
 -0.925  -0.886  -0.872  -0.865  -0.850  -0.811  -0.809  -0.792
 -0.784  -0.776  -0.762  -0.755  -0.754  -0.748  -0.741  -0.722
 -0.716  -0.700  -0.696  -0.694  -0.688  -0.672  -0.662  -0.641
 -0.603  -0.584  -0.570  -0.549  -0.537  -0.530  -0.525  -0.511
 -- Virtual --
 -0.411  -0.402  -0.388  -0.366  -0.347  -0.332  -0.315  -0.296
 -0.285  -0.282  -0.240  -0.228  -0.225  -0.219  -0.198  -0.192
 -0.185  -0.176  -0.170  -0.157  -0.152  -0.151  -0.143  -0.140
 -0.139  -0.128  -0.118  -0.110  -0.108  -0.092  -0.058  -0.048
 -0.038  -0.024  -0.015  -0.001   0.016   0.034   0.050   0.065
  0.077   0.082   0.092   0.105   0.129   0.142   0.155   0.164
  0.178   0.182   0.186   0.201   0.213   0.221   0.224   0.233
  0.243   0.250   0.256   0.276   0.294   0.304   0.333   0.341
  0.351   0.360   0.363   0.374   0.383   0.391   0.397   0.404
  0.409   0.414   0.418   0.433   0.441   0.445   0.451   0.463
  0.474   0.484   0.491   0.500   0.518   0.531   0.551   0.555
  0.580   0.589   0.607   0.612   0.615   0.627   0.662   0.669
  0.688   0.695   0.705   0.720   0.733   0.753   0.768   0.783
  0.793   0.803   0.834   0.842   0.850   0.890   0.920   0.928
  0.940   0.962   0.977   1.003   1.027   1.044   1.073   1.103
  1.148   1.168   1.186   1.225   1.261   1.363
 --------------------------------------------------------------
 
          Ground-State Mulliken Net Atomic Charges

     Atom                 Charge (a.u.)    Spin (a.u.)
  --------------------------------------------------------
      1 O                    -0.407248       0.483930
      2 O                     0.039662       0.843221
      3 Fe                    1.348827       2.897117
      4 N                    -0.124662       0.107733
      5 C                     0.259924      -0.168077
      6 N                    -0.391453       0.073339
      7 C                     0.222713      -0.208873
      8 C                    -0.557625      -0.086820
      9 H                     0.236110       0.015962
     10 H                     0.195237       0.009681
     11 H                     0.221366       0.008004
     12 H                     0.332697      -0.001946
     13 H                     0.195036      -0.000067
     14 C                     0.170240       0.015350
     15 H                     0.344456       0.000826
     16 N                    -0.364249      -0.015153
     17 C                     0.018609      -0.016912
     18 C                     0.300863      -0.004477
     19 H                     0.171935       0.001428
     20 N                    -0.632487      -0.035434
     21 H                     0.212289      -0.000430
     22 H                     0.171979       0.000501
     23 C                     0.016079      -0.013764
     24 H                     0.342523       0.001295
     25 N                    -0.695395       0.052636
     26 C                     0.046309       0.028591
     27 C                     0.132718       0.005271
     28 H                     0.173528      -0.000961
     29 N                    -0.173697       0.008991
     30 H                     0.193716      -0.000964
  --------------------------------------------------------
  Sum of atomic charges =     2.000000
  Sum of spin   charges =     4.000000

 -----------------------------------------------------------------
                    Cartesian Multipole Moments
 -----------------------------------------------------------------
    Charge (ESU x 10^10)
                 9.6064
    Dipole Moment (Debye)
         X       4.8573      Y      -8.9687      Z      -1.6112
       Tot      10.3260
    Quadrupole Moments (Debye-Ang)
        XX     -61.5968     XY     -15.6664     YY     -58.9046
        XZ       7.5675     YZ      -9.5957     ZZ     -87.5767
    Octopole Moments (Debye-Ang^2)
       XXX     150.5324    XXY      10.4073    XYY      -7.6228
       YYY    -123.0736    XXZ     -39.6888    XYZ     -11.2314
       YYZ      40.8190    XZZ      -8.7034    YZZ     -28.2727
       ZZZ      27.2526
    Hexadecapole Moments (Debye-Ang^3)
      XXXX   -1999.4651   XXXY     -27.3989   XXYY    -647.7038
      XYYY     -63.3416   YYYY   -1021.7503   XXXZ      87.4563
      XXYZ      40.9170   XYYZ      41.3688   YYYZ    -124.2807
      XXZZ    -539.0390   XYZZ     -38.9479   YYZZ    -329.0381
      XZZZ      56.9622   YZZZ     -42.4262   ZZZZ    -800.6066
 -----------------------------------------------------------------
 Calculating analytic gradient of the SCF energy
 Gradient of SCF Energy
            1           2           3           4           5           6
    1  -0.0380539   0.0093977   0.0760246  -0.0465805   0.0176135   0.0312976
    2  -0.0642048   0.0173090   0.0155239   0.0425433  -0.0374915   0.0123309
    3  -0.1275154   0.0358912   0.0149445  -0.0171048   0.0110642  -0.0005915
            7           8           9          10          11          12
    1  -0.1054635  -0.0159114   0.0017082  -0.0100985   0.0120558   0.0167815
    2  -0.0329133   0.0173532   0.0013693   0.0064602   0.0027049  -0.0150977
    3   0.0727476   0.0217282  -0.0224223   0.0272772   0.0017879   0.0080473
           13          14          15          16          17          18
    1  -0.0007587   0.0011769   0.0058986  -0.0049856   0.0264879   0.0060754
    2  -0.0077477  -0.0049242  -0.0155124  -0.0164787   0.0126716   0.0170718
    3  -0.0016175  -0.0064504   0.0146119  -0.0048498  -0.0089298  -0.0019805
           19          20          21          22          23          24
    1  -0.0006892   0.0064936   0.0029890   0.0041627  -0.0148183  -0.0083392
    2   0.0018618   0.0527460   0.0020862   0.0008324  -0.0082909   0.0156172
    3  -0.0063237  -0.0188714   0.0077186  -0.0040304  -0.0122360  -0.0025748
           25          26          27          28          29          30
    1   0.0484993   0.0135559   0.0063514  -0.0046548  -0.0388073   0.0025912
    2  -0.0074086   0.0090140   0.0099690  -0.0054476  -0.0258629   0.0039154
    3   0.0028601  -0.0166085   0.0069974  -0.0050575   0.0240728   0.0074153
 Max gradient component =       1.275E-01
 RMS gradient           =       2.789E-02
 Gradient time:  CPU 64.02 s  wall 5.56 s
 Geometry Optimization Parameters
   NAtoms,    NIC,     NZ,  NCons,   NDum,   NFix, NCnnct, MaxDiis
       30     287       0       0       0       0       0       0


** GEOMETRY OPTIMIZATION IN DELOCALIZED INTERNAL COORDINATES **
   Searching for a Minimum

   Optimization Cycle:   1

                       Coordinates (Angstroms)
     ATOM                X               Y               Z
      1  O         0.6301236838    1.6254776331    1.3692867201
      2  O         0.9916137979    2.2806892576    2.5105386046
      3  Fe        0.1592962288    0.8185852477    0.0305566745
      4  N         2.2641748741    1.4795112884   -1.3058317582
      5  C         3.3486693430    0.7066707218   -0.8001125359
      6  N         3.0261570825   -0.6031760684   -0.5997704082
      7  C         1.5876321291   -0.8127764471   -0.9233971256
      8  C         1.2569152123    0.5525354869   -1.4280550815
      9  H         1.4495894667   -1.6388770832   -1.6537542576
     10  H         0.2867309328    0.8477559167   -1.8672807600
     11  H         4.3548854741    1.1249182811   -0.5876842280
     12  H         3.7067100295   -1.3461210207   -0.2900834172
     13  H        -0.5499961814   -4.3581051190   -0.3420362686
     14  C        -0.3039608434   -3.3447345971    0.0081284862
     15  H         0.4239351128   -3.8393783628    2.0298604132
     16  N         0.2243620838   -3.1062630040    1.3013184424
     17  C        -0.4037654785   -2.1115597548   -0.5965678889
     18  C         0.4360486408   -1.7549205856    1.4587802773
     19  H        -0.7720121009   -1.8685824672   -1.6001963650
     20  N         0.0579214129   -1.0919677942    0.3032538180
     21  H         0.8459266920   -1.2958517846    2.3737117068
     22  H        -2.0964553963    0.9243178603   -2.5591016505
     23  C        -2.4702789142    0.7207376413   -1.5472088784
     24  H        -1.9196534493    2.4451241776   -0.4467573856
     25  N        -1.8182929655    1.3885831879   -0.3631042548
     26  C        -3.4893201071   -0.0467170383   -1.0959322686
     27  C        -2.7395486941    0.9149336273    0.7630483487
     28  H        -4.1725371610   -0.6893015109   -1.6748605606
     29  N        -3.6734628654    0.0638564867    0.3739867633
     30  H        -2.5730903046    1.3027265461    1.7840384201
   Point Group: c1    Number of degrees of freedom:    84


   Energy is  -2090.927726771


 Attempting to Generate Delocalized Internal Coordinates

 84 Hessian modes will be used to form the next step
  Hessian Eigenvalues:
     0.002000    0.002000    0.004780    0.007031    0.008226    0.008720
     0.010097    0.013540    0.013672    0.014817    0.015513    0.015660
     0.015665    0.017630    0.017787    0.018177    0.018979    0.021417
     0.021929    0.022640    0.026510    0.030402    0.033680    0.037218
     0.047040    0.057110    0.063404    0.070616    0.078953    0.081490
     0.088001    0.104011    0.119698    0.121363    0.129664    0.144904
     0.154484    0.159890    0.159930    0.159963    0.159997    0.159999
     0.160000    0.160000    0.160000    0.160000    0.179426    0.184934
     0.187200    0.200000    0.200000    0.220000    0.227582    0.231470
     0.236911    0.249839    0.250000    0.281658    0.305522    0.321946
     0.324660    0.325796    0.330111    0.331603    0.333904    0.334393
     0.336787    0.339291    0.340926    0.374383    0.379102    0.383644
     0.393207    0.395126    0.409533    0.441484    0.453976    0.454193
     0.478142    0.494850    0.506018    0.509058    0.520068    0.590679

 Minimum Search - Taking Simple RFO Step
 Searching for Lamda that Minimizes Along All modes
 Value Taken    Lamda =  -0.13454178
 Calculated Step too Large.  Step scaled by  0.445245
 Step Taken.  Stepsize is  0.300000

                             Maximum     Tolerance    Cnvgd?
         Gradient           0.089794      0.000300      NO
         Displacement       0.146847      0.001200      NO
         Energy change     *********      0.000001      NO


 New Cartesian Coordinates Obtained by Inverse Iteration

 Displacement from previous Coordinates is:  1.285778
 ----------------------------------------------------------------
             Standard Nuclear Orientation (Angstroms)
    I     Atom           X                Y                Z
 ----------------------------------------------------------------
    1      O       0.6618342915     1.6015484859     1.4119970905
    2      O       1.0094209313     2.2274753020     2.5565294628
    3      Fe      0.1927868807     0.8028293605     0.0162602174
    4      N       2.3090858750     1.5448707738    -1.3116552227
    5      C       3.4026353113     0.8125699279    -0.8331647651
    6      N       3.1181867303    -0.5123500785    -0.6898551030
    7      C       1.7093897426    -0.7608601192    -1.0266585244
    8      C       1.3243022104     0.5974920675    -1.4716302743
    9      H       1.6042254068    -1.5617308171    -1.7797221800
   10      H       0.3466791691     0.8836765319    -1.9063077473
   11      H       4.3853923283     1.2579371129    -0.5998308154
   12      H       3.8125668387    -1.2388352201    -0.4092226053
   13      H      -0.7706177677    -4.3739675422    -0.2153881595
   14      C      -0.4682317204    -3.3668194686     0.0939634425
   15      H       0.2434302229    -3.8167640364     2.1166420510
   16      N       0.0810664048    -3.1076552518     1.3694319654
   17      C      -0.5115274006    -2.1581589197    -0.5537108319
   18      C       0.3593081504    -1.7755926352     1.4812234852
   19      H      -0.8815569536    -1.9323290415    -1.5572123987
   20      N       0.0113549217    -1.1348705573     0.3090701243
   21      H       0.7908470248    -1.3069947719     2.3760694676
   22      H      -2.0878737717     0.9484992303    -2.5520863233
   23      C      -2.4469319013     0.7103355681    -1.5452544433
   24      H      -1.9191406825     2.4021094218    -0.4043379307
   25      N      -1.8054100844     1.3524045838    -0.3525729524
   26      C      -3.4467696406    -0.0886025612    -1.1085783932
   27      C      -2.6960001281     0.8339994452     0.7612866147
   28      H      -4.1232594538    -0.7263132260    -1.6924580946
   29      N      -3.6064546205    -0.0161139495     0.3527827916
   30      H      -2.5304205801     1.1903011072     1.7891636341
 ----------------------------------------------------------------
 Molecular Point Group                 C1    NOp =  1
 Largest Abelian Subgroup              C1    NOp =  1
 Nuclear Repulsion Energy =  1781.7077318320 hartrees
 There are       76 alpha and       72 beta electrons
 Applying Cartesian multipole field
    Component          Value
    ---------          -----
     (2,0,0)        1.00000E-11
     (0,2,0)        2.00000E-11
     (0,0,2)       -3.00000E-11
 Nucleus-field energy     =     0.0000000253 hartrees
 Requested basis set is VDZ
 There are 118 shells and 198 basis functions
 A cutoff of  1.0D-12 yielded   6061 shell pairs
 There are     17663 function pairs (     18055 Cartesian)
 Smallest overlap matrix eigenvalue = 1.73E-03
 Guess MOs from SCF MO coefficient file

 -----------------------------------------------------------------------
  General SCF calculation program by
  Eric Jon Sundstrom, Paul Horn, Yuezhi Mao, Dmitri Zuev, Alec White,
  David Stuck, Shaama M.S., Shane Yost, Joonho Lee, David Small,
  Daniel Levine, Susi Lehtola, Hugh Burton, Evgeny Epifanovsky
 -----------------------------------------------------------------------
 Exchange:     0.2000 Hartree-Fock + 0.0800 Slater + 0.7200 B88
 Correlation:  0.1900 VWN1RPA + 0.8100 LYP
 Using SG-1 standard quadrature grid
 using 12 threads for integral computing
 -------------------------------------------------------
 OpenMP Integral computing Module                
 Release: version 1.0, May 2013, Q-Chem Inc. Pittsburgh 
 -------------------------------------------------------
 -------------------------------------------------------
 OpenMP BLAS3 based DFT computing Module                
 Release: version 1.0, May 2013, Q-Chem Inc. Pittsburgh 
 -------------------------------------------------------
 A unrestricted SCF calculation will be
 performed using DIIS, GDM
 SCF converges when RMS gradient is below 1.0e-08
 ---------------------------------------
  Cycle       Energy         DIIS error
 ---------------------------------------
    1   -2090.9562901838      6.80e-04  
    2   -2090.9734869497      2.94e-04  Done DIIS. Switching to GDM
 ---------------------------------------
  Cycle       Energy        RMS Gradient
 ---------------------------------------
    1   -2090.9734869497      3.16e-02   Normal BFGS step
    2   -2090.9558572790      2.33e-01  Line search: overstep
    3   -2090.9748702120      1.60e-02   Normal BFGS step
    4   -2090.9711110817      5.86e-02  Line search: overstep
    5   -2090.9752057571      3.73e-03   Normal BFGS step
    6   -2090.9753550730      3.73e-03   Normal BFGS step
    7   -2090.9753485316      5.35e-03  Line search: overstep
    8   -2090.9753997020      1.02e-03   Normal BFGS step
    9   -2090.9754153825      1.13e-03   Normal BFGS step
   10   -2090.9754293673      7.95e-04   Normal BFGS step
   11   -2090.9754369110      6.13e-04   Normal BFGS step
   12   -2090.9754426147      5.67e-04   Normal BFGS step
   13   -2090.9754455765      5.10e-04   Normal BFGS step
   14   -2090.9754489034      4.20e-04   Normal BFGS step
   15   -2090.9754503419      8.44e-04   Normal BFGS step
   16   -2090.9754520454      6.45e-04   Normal BFGS step
   17   -2090.9754528033      2.85e-04   Normal BFGS step
   18   -2090.9754537377      1.82e-04   Normal BFGS step
   19   -2090.9754541564      1.40e-04   Normal BFGS step
   20   -2090.9754544774      1.23e-04   Normal BFGS step
   21   -2090.9754546405      9.26e-05   Normal BFGS step
   22   -2090.9754548019      9.23e-05   Normal BFGS step
   23   -2090.9754548943      7.81e-05   Normal BFGS step
   24   -2090.9754549842      6.30e-05   Normal BFGS step
   25   -2090.9754550290      1.11e-04   Normal BFGS step
   26   -2090.9754549126      6.66e-04  Line search: overstep
   27   -2090.9754550452      1.09e-04   Normal BFGS step
   28   -2090.9754550505      8.55e-05   Normal BFGS step
   29   -2090.9754550786      3.22e-05   Normal BFGS step
   30   -2090.9754550814      4.33e-05   Normal BFGS step
   31   -2090.9754550900      3.19e-05   Normal BFGS step
   32   -2090.9754550930      3.26e-05   Normal BFGS step
   33   -2090.9754550976      2.18e-05   Normal BFGS step
   34   -2090.9754551012      1.75e-05   Normal BFGS step
   35   -2090.9754551034      1.41e-05   Normal BFGS step
   36   -2090.9754551045      1.01e-05   Normal BFGS step
   37   -2090.9754551046      1.51e-05   Normal BFGS step
   38   -2090.9754551050      3.10e-06   Normal BFGS step
   39   -2090.9754551050      7.37e-06   Normal BFGS step
   40   -2090.9754551052      3.35e-06   Normal BFGS step
   41   -2090.9754551052      1.41e-06   Normal BFGS step
   42   -2090.9754551052      7.50e-07   Normal BFGS step
   43   -2090.9754551052      5.90e-07   Normal BFGS step
   44   -2090.9754551052      3.88e-07   Normal BFGS step
   45   -2090.9754551052      4.08e-07   Normal BFGS step
   46   -2090.9754551052      1.41e-06   Normal BFGS step
   47   -2090.9754551052      2.67e-06   Normal BFGS step
   48   -2090.9754551052      1.55e-07   Normal BFGS step
   49   -2090.9754551052      3.40e-07   Normal BFGS step
   50   -2090.9754551052      5.05e-08   Normal BFGS step
   51   -2090.9754551052      8.39e-08   Normal BFGS step
   52   -2090.9754551052      2.47e-08   Normal BFGS step
   53   -2090.9754551052      4.53e-08   Normal BFGS step
   54   -2090.9754551052      1.54e-08   Normal BFGS step
   55   -2090.9754551052      1.64e-08   Normal BFGS step
  /scratch/qcdevops/jenkins/workspace/build_qchem_linux_distrib/tags/qc511/qchem/libgscf/libgscf/opt/gdm.C::WARNING energy changes are now smaller than effective accuracy.
  /scratch/qcdevops/jenkins/workspace/build_qchem_linux_distrib/tags/qc511/qchem/libgscf/libgscf/opt/gdm.C::        calculation will continue, but THRESH should be increased
  /scratch/qcdevops/jenkins/workspace/build_qchem_linux_distrib/tags/qc511/qchem/libgscf/libgscf/opt/gdm.C::        or SCF_CONVERGENCE decreased. 
  /scratch/qcdevops/jenkins/workspace/build_qchem_linux_distrib/tags/qc511/qchem/libgscf/libgscf/opt/gdm.C::        effective_thresh = 4.85e-09
   56   -2090.9754551052      1.09e-08   Normal BFGS step
   57   -2090.9754551052      1.28e-08   Normal BFGS step
   58   -2090.9754551052      6.98e-09  Convergence criterion met
 ---------------------------------------
 SCF time:   CPU 1307.20s  wall 109.00s 
<S^2> =          6.295474209
 SCF   energy in the final basis set =    -2090.9754551052
 Total energy in the final basis set =    -2090.9754551052
 
 --------------------------------------------------------------
 
                    Orbital Energies (a.u.)
 --------------------------------------------------------------
 
 Alpha MOs
 -- Occupied --
******* -30.395 -26.271 -26.259 -26.250 -19.526 -19.512 -14.718
-14.709 -14.700 -14.680 -14.654 -14.608 -10.589 -10.586 -10.581
-10.554 -10.534 -10.533 -10.529 -10.503 -10.489  -3.858  -2.656
 -2.633  -2.617  -1.437  -1.337  -1.332  -1.269  -1.199  -1.197
 -1.147  -1.119  -1.079  -1.066  -1.018  -0.950  -0.938  -0.924
 -0.916  -0.876  -0.871  -0.870  -0.854  -0.817  -0.811  -0.800
 -0.785  -0.773  -0.772  -0.767  -0.764  -0.758  -0.750  -0.745
 -0.741  -0.724  -0.720  -0.709  -0.701  -0.686  -0.679  -0.656
 -0.639  -0.634  -0.621  -0.600  -0.593  -0.586  -0.579  -0.559
 -0.546  -0.535  -0.535  -0.526
 -- Virtual --
 -0.452  -0.355  -0.309  -0.300  -0.289  -0.270  -0.244  -0.232
 -0.221  -0.213  -0.207  -0.192  -0.186  -0.174  -0.169  -0.159
 -0.151  -0.145  -0.138  -0.136  -0.128  -0.120  -0.114  -0.111
 -0.106  -0.086  -0.062  -0.049  -0.041  -0.031  -0.015  -0.001
  0.023   0.044   0.054   0.071   0.083   0.087   0.092   0.110
  0.125   0.145   0.160   0.169   0.180   0.187   0.191   0.203
  0.214   0.224   0.230   0.236   0.248   0.252   0.259   0.280
  0.295   0.307   0.332   0.341   0.345   0.350   0.365   0.367
  0.387   0.392   0.395   0.404   0.407   0.415   0.420   0.428
  0.441   0.448   0.461   0.466   0.479   0.488   0.491   0.503
  0.514   0.523   0.537   0.551   0.573   0.584   0.607   0.610
  0.612   0.621   0.622   0.636   0.664   0.672   0.697   0.699
  0.726   0.747   0.759   0.765   0.772   0.787   0.821   0.829
  0.834   0.869   0.893   0.915   0.934   0.942   0.955   0.997
  1.025   1.038   1.043   1.077   1.101   1.128   1.170   1.192
  1.240   1.318
 
 Beta MOs
 -- Occupied --
******* -30.338 -26.219 -26.213 -26.204 -19.510 -19.487 -14.717
-14.709 -14.702 -14.678 -14.652 -14.608 -10.590 -10.589 -10.584
-10.555 -10.534 -10.533 -10.529 -10.503 -10.489  -3.717  -2.502
 -2.489  -2.468  -1.392  -1.338  -1.332  -1.267  -1.199  -1.195
 -1.145  -1.085  -1.066  -1.061  -1.018  -0.950  -0.939  -0.924
 -0.916  -0.876  -0.871  -0.869  -0.853  -0.815  -0.800  -0.783
 -0.773  -0.769  -0.763  -0.752  -0.748  -0.745  -0.741  -0.721
 -0.709  -0.706  -0.701  -0.697  -0.695  -0.675  -0.646  -0.639
 -0.606  -0.584  -0.561  -0.559  -0.538  -0.534  -0.529  -0.519
 -- Virtual --
 -0.415  -0.408  -0.399  -0.370  -0.345  -0.343  -0.310  -0.296
 -0.284  -0.271  -0.238  -0.225  -0.219  -0.213  -0.195  -0.187
 -0.179  -0.173  -0.165  -0.155  -0.148  -0.144  -0.137  -0.135
 -0.129  -0.118  -0.111  -0.108  -0.106  -0.085  -0.062  -0.047
 -0.031  -0.025  -0.012   0.001   0.023   0.047   0.055   0.072
  0.084   0.087   0.095   0.110   0.129   0.146   0.160   0.170
  0.180   0.189   0.191   0.204   0.216   0.225   0.229   0.236
  0.248   0.253   0.259   0.281   0.297   0.310   0.333   0.343
  0.346   0.353   0.366   0.369   0.388   0.393   0.396   0.405
  0.412   0.418   0.423   0.431   0.444   0.450   0.464   0.467
  0.480   0.490   0.492   0.507   0.525   0.526   0.541   0.554
  0.577   0.588   0.610   0.613   0.619   0.630   0.654   0.661
  0.674   0.684   0.704   0.714   0.734   0.767   0.767   0.775
  0.778   0.803   0.830   0.837   0.841   0.885   0.908   0.926
  0.939   0.953   0.973   1.002   1.031   1.046   1.056   1.095
  1.128   1.149   1.185   1.204   1.246   1.345
 --------------------------------------------------------------
 
          Ground-State Mulliken Net Atomic Charges

     Atom                 Charge (a.u.)    Spin (a.u.)
  --------------------------------------------------------
      1 O                    -0.385045       0.485432
      2 O                     0.059190       0.848220
      3 Fe                    1.356420       2.862779
      4 N                    -0.125838       0.106717
      5 C                     0.259790      -0.139129
      6 N                    -0.383647       0.084381
      7 C                     0.246725      -0.245168
      8 C                    -0.580710      -0.062342
      9 H                     0.223284       0.016801
     10 H                     0.199097       0.006727
     11 H                     0.217848       0.006821
     12 H                     0.329697      -0.002411
     13 H                     0.186901      -0.000052
     14 C                     0.150287       0.009459
     15 H                     0.333894       0.000269
     16 N                    -0.356674      -0.009731
     17 C                     0.035509      -0.005785
     18 C                     0.287021       0.004760
     19 H                     0.158000       0.000749
     20 N                    -0.619072      -0.050749
     21 H                     0.198521      -0.001090
     22 H                     0.169992       0.000616
     23 C                     0.018424      -0.016397
     24 H                     0.340012       0.001070
     25 N                    -0.694184       0.055671
     26 C                     0.051139       0.030326
     27 C                     0.133706       0.006192
     28 H                     0.170860      -0.001087
     29 N                    -0.169246       0.007941
     30 H                     0.188099      -0.000990
  --------------------------------------------------------
  Sum of atomic charges =     2.000000
  Sum of spin   charges =     4.000000

 -----------------------------------------------------------------
                    Cartesian Multipole Moments
 -----------------------------------------------------------------
    Charge (ESU x 10^10)
                 9.6064
    Dipole Moment (Debye)
         X       5.0269      Y      -7.7427      Z      -1.6443
       Tot       9.3767
    Quadrupole Moments (Debye-Ang)
        XX     -58.9952     XY     -12.3744     YY     -60.4677
        XZ       5.6371     YZ      -9.2350     ZZ     -86.0564
    Octopole Moments (Debye-Ang^2)
       XXX     158.9090    XXY      13.6621    XYY     -14.8323
       YYY    -113.4690    XXZ     -44.5900    XYZ      -7.6635
       YYZ      44.4684    XZZ      -8.1349    YZZ     -27.1310
       ZZZ      28.2749
    Hexadecapole Moments (Debye-Ang^3)
      XXXX   -1968.6037   XXXY     -74.0095   XXYY    -647.7716
      XYYY     -78.7375   YYYY   -1054.3441   XXXZ      85.0603
      XXYZ      53.2074   XYYZ      39.8107   YYYZ    -111.6194
      XXZZ    -542.8869   XYZZ     -52.4094   YYZZ    -329.2925
      XZZZ      70.3785   YZZZ     -27.1394   ZZZZ    -826.1191
 -----------------------------------------------------------------
 Calculating analytic gradient of the SCF energy
 Gradient of SCF Energy
            1           2           3           4           5           6
    1  -0.0265982   0.0091372   0.0575121  -0.0326615   0.0147619   0.0287621
    2  -0.0455353   0.0164529   0.0191271   0.0302822  -0.0286061   0.0130446
    3  -0.0980025   0.0354614  -0.0041270  -0.0146066   0.0080030   0.0004101
            7           8           9          10          11          12
    1  -0.0878972  -0.0103760   0.0116041  -0.0117366   0.0081403   0.0118903
    2  -0.0377812   0.0152668   0.0118150   0.0063573   0.0023605  -0.0095503
    3   0.0611578   0.0168719  -0.0218050   0.0250673   0.0011598   0.0050299
           13          14          15          16          17          18
    1  -0.0006127  -0.0014697   0.0038882  -0.0027958   0.0069891   0.0038162
    2  -0.0054478  -0.0012041  -0.0106719  -0.0075529  -0.0053512   0.0050601
    3  -0.0008857  -0.0088195   0.0110556  -0.0027461  -0.0034854   0.0041348
           19          20          21          22          23          24
    1  -0.0011576   0.0097586   0.0022487   0.0032756  -0.0143119  -0.0081576
    2   0.0011219   0.0372243   0.0018093   0.0005722  -0.0076206   0.0106245
    3  -0.0039780  -0.0155476   0.0053479  -0.0025415  -0.0090022  -0.0015283
           25          26          27          28          29          30
    1   0.0402663   0.0114852   0.0018828  -0.0031108  -0.0266058   0.0020726
    2  -0.0066914   0.0085359   0.0057627  -0.0038749  -0.0182080   0.0026784
    3   0.0023116  -0.0151308   0.0045754  -0.0033549   0.0198972   0.0050771
 Max gradient component =       9.800E-02
 RMS gradient           =       2.210E-02
 Gradient time:  CPU 62.40 s  wall 5.43 s
 Geometry Optimization Parameters
   NAtoms,    NIC,     NZ,  NCons,   NDum,   NFix, NCnnct, MaxDiis
       30     287       0       0       0       0       0       0

 Cartesian Hessian Update
 Hessian Updated using BFGS Update


** GEOMETRY OPTIMIZATION IN DELOCALIZED INTERNAL COORDINATES **
   Searching for a Minimum

   Optimization Cycle:   2

                       Coordinates (Angstroms)
     ATOM                X               Y               Z
      1  O         0.6618342915    1.6015484859    1.4119970905
      2  O         1.0094209313    2.2274753020    2.5565294628
      3  Fe        0.1927868807    0.8028293605    0.0162602174
      4  N         2.3090858750    1.5448707738   -1.3116552227
      5  C         3.4026353113    0.8125699279   -0.8331647651
      6  N         3.1181867303   -0.5123500785   -0.6898551030
      7  C         1.7093897426   -0.7608601192   -1.0266585244
      8  C         1.3243022104    0.5974920675   -1.4716302743
      9  H         1.6042254068   -1.5617308171   -1.7797221800
     10  H         0.3466791691    0.8836765319   -1.9063077473
     11  H         4.3853923283    1.2579371129   -0.5998308154
     12  H         3.8125668387   -1.2388352201   -0.4092226053
     13  H        -0.7706177677   -4.3739675422   -0.2153881595
     14  C        -0.4682317204   -3.3668194686    0.0939634425
     15  H         0.2434302229   -3.8167640364    2.1166420510
     16  N         0.0810664048   -3.1076552518    1.3694319654
     17  C        -0.5115274006   -2.1581589197   -0.5537108319
     18  C         0.3593081504   -1.7755926352    1.4812234852
     19  H        -0.8815569536   -1.9323290415   -1.5572123987
     20  N         0.0113549217   -1.1348705573    0.3090701243
     21  H         0.7908470248   -1.3069947719    2.3760694676
     22  H        -2.0878737717    0.9484992303   -2.5520863233
     23  C        -2.4469319013    0.7103355681   -1.5452544433
     24  H        -1.9191406825    2.4021094218   -0.4043379307
     25  N        -1.8054100844    1.3524045838   -0.3525729524
     26  C        -3.4467696406   -0.0886025612   -1.1085783932
     27  C        -2.6960001281    0.8339994452    0.7612866147
     28  H        -4.1232594538   -0.7263132260   -1.6924580946
     29  N        -3.6064546205   -0.0161139495    0.3527827916
     30  H        -2.5304205801    1.1903011072    1.7891636341
   Point Group: c1    Number of degrees of freedom:    84


   Energy is  -2090.975455105

 Hessian Updated using BFGS Update

 84 Hessian modes will be used to form the next step
  Hessian Eigenvalues:
     0.002000    0.002072    0.004780    0.007387    0.008226    0.008694
     0.010077    0.013540    0.013679    0.014809    0.015513    0.015660
     0.016046    0.017644    0.017807    0.018177    0.019005    0.021417
     0.022342    0.022640    0.026540    0.030402    0.033585    0.037240
     0.047038    0.057170    0.062463    0.070453    0.078660    0.081587
     0.088848    0.108105    0.119328    0.127035    0.129636    0.138251
     0.159838    0.159917    0.159953    0.159981    0.159987    0.159997
     0.159999    0.160000    0.160000    0.170131    0.184582    0.186784
     0.199883    0.200000    0.219495    0.223702    0.228386    0.231020
     0.238929    0.249553    0.276645    0.280235    0.298923    0.305559
     0.324994    0.326495    0.329867    0.331866    0.333928    0.334558
     0.336813    0.339313    0.340941    0.357350    0.379360    0.389116
     0.394516    0.394606    0.409605    0.422143    0.450271    0.460990
     0.480396    0.493931    0.505957    0.509323    0.530874    0.590259

 Minimum Search - Taking Simple RFO Step
 Searching for Lamda that Minimizes Along All modes
 Value Taken    Lamda =  -0.07742744
 Calculated Step too Large.  Step scaled by  0.479731
 Step Taken.  Stepsize is  0.300000

                             Maximum     Tolerance    Cnvgd?
         Gradient           0.057814      0.000300      NO
         Displacement       0.092063      0.001200      NO
         Energy change     -0.047728      0.000001      NO


 New Cartesian Coordinates Obtained by Inverse Iteration

 Displacement from previous Coordinates is:  0.588259
 ----------------------------------------------------------------
             Standard Nuclear Orientation (Angstroms)
    I     Atom           X                Y                Z
 ----------------------------------------------------------------
    1      O       0.6651063134     1.5908085993     1.4656799356
    2      O       0.9955869138     2.1895047689     2.5962082223
    3      Fe      0.1974858594     0.7914794764     0.0122234140
    4      N       2.3490524965     1.5500046187    -1.3115538111
    5      C       3.4260094729     0.8394307558    -0.8514794561
    6      N       3.1453114793    -0.4912712483    -0.7519858778
    7      C       1.7743946820    -0.7434141074    -1.0996786636
    8      C       1.3696275518     0.6038029817    -1.5057423057
    9      H       1.6600279544    -1.5404911780    -1.8519013401
   10      H       0.3962723057     0.8924452280    -1.9463457057
   11      H       4.3941042940     1.2869208269    -0.5962498843
   12      H       3.8304401092    -1.2151450611    -0.4865472667
   13      H      -0.8082310345    -4.3663769424    -0.1654630567
   14      C      -0.5038007734    -3.3610549584     0.1312788170
   15      H       0.1532977241    -3.7721335762     2.1609373976
   16      N       0.0172373037    -3.0831262109     1.4067531495
   17      C      -0.5204495160    -2.1679732092    -0.5422960932
   18      C       0.3062784624    -1.7635511906     1.4983000716
   19      H      -0.8613546189    -1.9557065289    -1.5552096633
   20      N      -0.0173249161    -1.1499620731     0.3183259728
   21      H       0.7224793044    -1.2815418364     2.3868608513
   22      H      -2.1040998805     0.9727206466    -2.5381030152
   23      C      -2.4506155358     0.7149028248    -1.5348927611
   24      H      -1.9293319101     2.3782643546    -0.3734284781
   25      N      -1.8194534561     1.3364772182    -0.3421179069
   26      C      -3.4399068342    -0.1026554231    -1.1053931177
   27      C      -2.6797934816     0.7943373403     0.7616717155
   28      H      -4.1146438631    -0.7355121294    -1.6871551019
   29      N      -3.5719435752    -0.0489764766     0.3397788814
   30      H      -2.5134450964     1.1258832320     1.7922986586
 ----------------------------------------------------------------
 Molecular Point Group                 C1    NOp =  1
 Largest Abelian Subgroup              C1    NOp =  1
 Nuclear Repulsion Energy =  1776.9238545495 hartrees
 There are       76 alpha and       72 beta electrons
 Applying Cartesian multipole field
    Component          Value
    ---------          -----
     (2,0,0)        1.00000E-11
     (0,2,0)        2.00000E-11
     (0,0,2)       -3.00000E-11
 Nucleus-field energy     =     0.0000000244 hartrees
 Requested basis set is VDZ
 There are 118 shells and 198 basis functions
 A cutoff of  1.0D-12 yielded   6061 shell pairs
 There are     17669 function pairs (     18061 Cartesian)
 Smallest overlap matrix eigenvalue = 1.69E-03
 Guess MOs from SCF MO coefficient file

 -----------------------------------------------------------------------
  General SCF calculation program by
  Eric Jon Sundstrom, Paul Horn, Yuezhi Mao, Dmitri Zuev, Alec White,
  David Stuck, Shaama M.S., Shane Yost, Joonho Lee, David Small,
  Daniel Levine, Susi Lehtola, Hugh Burton, Evgeny Epifanovsky
 -----------------------------------------------------------------------
 Exchange:     0.2000 Hartree-Fock + 0.0800 Slater + 0.7200 B88
 Correlation:  0.1900 VWN1RPA + 0.8100 LYP
 Using SG-1 standard quadrature grid
 using 12 threads for integral computing
 -------------------------------------------------------
 OpenMP Integral computing Module                
 Release: version 1.0, May 2013, Q-Chem Inc. Pittsburgh 
 -------------------------------------------------------
 -------------------------------------------------------
 OpenMP BLAS3 based DFT computing Module                
 Release: version 1.0, May 2013, Q-Chem Inc. Pittsburgh 
 -------------------------------------------------------
 A unrestricted SCF calculation will be
 performed using DIIS, GDM
 SCF converges when RMS gradient is below 1.0e-08
 ---------------------------------------
  Cycle       Energy         DIIS error
 ---------------------------------------
    1   -2090.9987526338      4.58e-04  
    2   -2091.0055122598      2.36e-04  Done DIIS. Switching to GDM
 ---------------------------------------
  Cycle       Energy        RMS Gradient
 ---------------------------------------
    1   -2091.0055122598      3.46e-02   Normal BFGS step
    2   -2090.9917808639      2.45e-01  Line search: overstep
    3   -2091.0064249279      1.34e-02   Normal BFGS step
    4   -2091.0039812356      4.03e-02  Line search: overstep
    5   -2091.0066698445      4.75e-03   Normal BFGS step
    6   -2091.0067391686      4.05e-03   Normal BFGS step
    7   -2091.0068050164      1.89e-03   Normal BFGS step
    8   -2091.0068490019      1.95e-03   Normal BFGS step
    9   -2091.0068919475      1.61e-03   Normal BFGS step
   10   -2091.0069315386      1.17e-03   Normal BFGS step
   11   -2091.0069502083      1.50e-03   Normal BFGS step
   12   -2091.0069578997      1.10e-03   Normal BFGS step
   13   -2091.0069680248      8.52e-04   Normal BFGS step
   14   -2091.0069709143      7.09e-04   Normal BFGS step
   15   -2091.0069764971      3.85e-04   Normal BFGS step
   16   -2091.0069769537      4.92e-04   Normal BFGS step
   17   -2091.0069786232      2.68e-04   Normal BFGS step
   18   -2091.0069792710      2.36e-04   Normal BFGS step
   19   -2091.0069801559      1.69e-04   Normal BFGS step
   20   -2091.0069808801      1.80e-04   Normal BFGS step
   21   -2091.0069811923      1.91e-04   Normal BFGS step
   22   -2091.0069813791      2.21e-04   Normal BFGS step
   23   -2091.0069812737      6.34e-04  Line search: overstep
   24   -2091.0069814443      1.75e-04   Normal BFGS step
   25   -2091.0069814091      2.11e-04  Line search: overstep
   26   -2091.0069815187      7.93e-05   Normal BFGS step
   27   -2091.0069815709      1.31e-04   Normal BFGS step
   28   -2091.0069816068      5.83e-05   Normal BFGS step
   29   -2091.0069816122      6.26e-05   Normal BFGS step
   30   -2091.0069816299      2.41e-05   Normal BFGS step
   31   -2091.0069816327      2.45e-05   Normal BFGS step
   32   -2091.0069816358      1.57e-05   Normal BFGS step
   33   -2091.0069816375      1.85e-05   Normal BFGS step
   34   -2091.0069816394      1.36e-05   Normal BFGS step
   35   -2091.0069816408      1.02e-05   Normal BFGS step
   36   -2091.0069816423      1.17e-05   Normal BFGS step
   37   -2091.0069816428      7.96e-06   Normal BFGS step
   38   -2091.0069816435      4.53e-06   Normal BFGS step
   39   -2091.0069816436      3.72e-06   Normal BFGS step
   40   -2091.0069816438      2.50e-06   Normal BFGS step
   41   -2091.0069816438      1.28e-06   Normal BFGS step
   42   -2091.0069816438      1.05e-06   Normal BFGS step
   43   -2091.0069816438      7.32e-07   Normal BFGS step
   44   -2091.0069816439      4.38e-07   Normal BFGS step
   45   -2091.0069816438      1.15e-06   Normal BFGS step
   46   -2091.0069816439      2.58e-06   Normal BFGS step
   47   -2091.0069816439      4.15e-07   Normal BFGS step
   48   -2091.0069816439      7.15e-07   Normal BFGS step
   49   -2091.0069816439      1.20e-07   Normal BFGS step
   50   -2091.0069816439      1.53e-07   Normal BFGS step
   51   -2091.0069816439      5.41e-08   Normal BFGS step
   52   -2091.0069816439      6.91e-08   Normal BFGS step
   53   -2091.0069816439      3.08e-08   Normal BFGS step
   54   -2091.0069816439      4.27e-08   Normal BFGS step
   55   -2091.0069816439      3.23e-08   Normal BFGS step
   56   -2091.0069816439      4.16e-08   Normal BFGS step
   57   -2091.0069816439      7.52e-09  Convergence criterion met
 ---------------------------------------
 SCF time:   CPU 1279.55s  wall 107.00s 
<S^2> =          6.308832651
 SCF   energy in the final basis set =    -2091.0069816439
 Total energy in the final basis set =    -2091.0069816439
 
 --------------------------------------------------------------
 
                    Orbital Energies (a.u.)
 --------------------------------------------------------------
 
 Alpha MOs
 -- Occupied --
******* -30.395 -26.270 -26.261 -26.250 -19.542 -19.529 -14.714
-14.701 -14.690 -14.679 -14.649 -14.603 -10.581 -10.576 -10.575
-10.550 -10.531 -10.527 -10.522 -10.501 -10.487  -3.854  -2.650
 -2.631  -2.612  -1.472  -1.342  -1.336  -1.277  -1.200  -1.193
 -1.151  -1.123  -1.079  -1.063  -1.020  -0.948  -0.935  -0.923
 -0.913  -0.875  -0.873  -0.872  -0.857  -0.821  -0.820  -0.797
 -0.790  -0.782  -0.777  -0.770  -0.764  -0.758  -0.748  -0.747
 -0.738  -0.722  -0.716  -0.708  -0.704  -0.685  -0.682  -0.654
 -0.640  -0.635  -0.617  -0.604  -0.595  -0.588  -0.578  -0.554
 -0.552  -0.547  -0.532  -0.526
 -- Virtual --
 -0.455  -0.349  -0.305  -0.297  -0.283  -0.264  -0.244  -0.228
 -0.217  -0.207  -0.203  -0.190  -0.182  -0.170  -0.161  -0.155
 -0.147  -0.140  -0.134  -0.127  -0.115  -0.114  -0.111  -0.102
 -0.100  -0.079  -0.063  -0.047  -0.046  -0.024  -0.011   0.003
  0.026   0.049   0.063   0.077   0.083   0.093   0.099   0.119
  0.126   0.151   0.161   0.174   0.182   0.190   0.199   0.208
  0.218   0.227   0.238   0.243   0.251   0.256   0.265   0.284
  0.298   0.312   0.331   0.341   0.347   0.350   0.368   0.372
  0.394   0.394   0.396   0.405   0.414   0.420   0.422   0.433
  0.448   0.454   0.466   0.469   0.485   0.491   0.493   0.508
  0.513   0.525   0.535   0.552   0.573   0.582   0.606   0.610
  0.614   0.617   0.618   0.636   0.656   0.664   0.692   0.702
  0.721   0.740   0.756   0.762   0.773   0.789   0.815   0.830
  0.834   0.862   0.887   0.909   0.932   0.938   0.951   0.997
  1.019   1.036   1.044   1.059   1.086   1.126   1.171   1.183
  1.237   1.309
 
 Beta MOs
 -- Occupied --
******* -30.340 -26.222 -26.216 -26.206 -19.524 -19.502 -14.713
-14.701 -14.692 -14.677 -14.647 -14.603 -10.581 -10.580 -10.577
-10.551 -10.531 -10.527 -10.522 -10.502 -10.487  -3.720  -2.504
 -2.494  -2.469  -1.424  -1.342  -1.336  -1.276  -1.197  -1.194
 -1.149  -1.085  -1.064  -1.061  -1.019  -0.948  -0.936  -0.923
 -0.913  -0.875  -0.872  -0.871  -0.855  -0.819  -0.798  -0.781
 -0.777  -0.767  -0.764  -0.752  -0.747  -0.746  -0.738  -0.724
 -0.718  -0.711  -0.702  -0.700  -0.695  -0.678  -0.640  -0.635
 -0.607  -0.581  -0.567  -0.554  -0.544  -0.533  -0.528  -0.523
 -- Virtual --
 -0.416  -0.411  -0.407  -0.370  -0.352  -0.342  -0.303  -0.294
 -0.280  -0.264  -0.237  -0.221  -0.215  -0.207  -0.194  -0.182
 -0.174  -0.169  -0.158  -0.152  -0.143  -0.137  -0.133  -0.126
 -0.115  -0.112  -0.110  -0.102  -0.098  -0.077  -0.063  -0.045
 -0.029  -0.024  -0.009   0.004   0.026   0.052   0.064   0.078
  0.084   0.094   0.101   0.119   0.128   0.151   0.162   0.174
  0.183   0.191   0.199   0.209   0.220   0.228   0.239   0.242
  0.252   0.257   0.264   0.285   0.300   0.314   0.331   0.341
  0.349   0.354   0.369   0.375   0.395   0.396   0.398   0.406
  0.417   0.422   0.427   0.436   0.451   0.456   0.467   0.470
  0.486   0.492   0.494   0.511   0.523   0.529   0.539   0.555
  0.577   0.587   0.614   0.614   0.622   0.631   0.649   0.654
  0.666   0.677   0.706   0.713   0.733   0.760   0.764   0.774
  0.778   0.801   0.824   0.836   0.843   0.876   0.900   0.919
  0.941   0.945   0.968   1.002   1.029   1.047   1.050   1.084
  1.110   1.143   1.188   1.192   1.242   1.334
 --------------------------------------------------------------
 
          Ground-State Mulliken Net Atomic Charges

     Atom                 Charge (a.u.)    Spin (a.u.)
  --------------------------------------------------------
      1 O                    -0.351312       0.542137
      2 O                     0.079582       0.899813
      3 Fe                    1.346633       2.739689
      4 N                    -0.123670       0.090068
      5 C                     0.252416      -0.121682
      6 N                    -0.372585       0.075405
      7 C                     0.250639      -0.230452
      8 C                    -0.582504      -0.051491
      9 H                     0.217545       0.015367
     10 H                     0.194723       0.003474
     11 H                     0.210420       0.006184
     12 H                     0.322059      -0.002105
     13 H                     0.180578      -0.000124
     14 C                     0.139857       0.008372
     15 H                     0.324812      -0.000115
     16 N                    -0.343551      -0.006710
     17 C                     0.043525      -0.002309
     18 C                     0.274983       0.012705
     19 H                     0.151096       0.000551
     20 N                    -0.608214      -0.055635
     21 H                     0.188774      -0.001766
     22 H                     0.166790       0.000754
     23 C                     0.018841      -0.018528
     24 H                     0.335921       0.000618
     25 N                    -0.687392       0.053746
     26 C                     0.054350       0.030304
     27 C                     0.130300       0.006822
     28 H                     0.166777      -0.001156
     29 N                    -0.161831       0.007099
     30 H                     0.180441      -0.001035
  --------------------------------------------------------
  Sum of atomic charges =     2.000000
  Sum of spin   charges =     4.000000

 -----------------------------------------------------------------
                    Cartesian Multipole Moments
 -----------------------------------------------------------------
    Charge (ESU x 10^10)
                 9.6064
    Dipole Moment (Debye)
         X       5.0112      Y      -6.9707      Z      -1.3887
       Tot       8.6967
    Quadrupole Moments (Debye-Ang)
        XX     -59.1503     XY     -11.3400     YY     -61.3117
        XZ       4.8589     YZ      -8.2501     ZZ     -84.7152
    Octopole Moments (Debye-Ang^2)
       XXX     157.9001    XXY      14.8618    XYY     -16.5845
       YYY    -104.7483    XXZ     -46.2759    XYZ      -4.4259
       YYZ      45.6786    XZZ      -7.3028    YZZ     -25.7416
       ZZZ      29.5576
    Hexadecapole Moments (Debye-Ang^3)
      XXXX   -1979.6353   XXXY     -90.7417   XXYY    -648.5646
      XYYY     -82.4975   YYYY   -1064.4746   XXXZ      91.7807
      XXYZ      58.9506   XYYZ      40.1545   YYYZ    -101.5409
      XXZZ    -547.5273   XYZZ     -54.4888   YYZZ    -326.9545
      XZZZ      80.5131   YZZZ     -20.9653   ZZZZ    -844.9518
 -----------------------------------------------------------------
 Calculating analytic gradient of the SCF energy
 Gradient of SCF Energy
            1           2           3           4           5           6
    1  -0.0161832   0.0066812   0.0413486  -0.0178601   0.0069173   0.0197461
    2  -0.0286245   0.0115423   0.0176669   0.0156221  -0.0217380   0.0155806
    3  -0.0663182   0.0268149  -0.0119611  -0.0104496   0.0039753  -0.0023786
            7           8           9          10          11          12
    1  -0.0737224   0.0030531   0.0130546  -0.0117235   0.0035702   0.0051620
    2  -0.0353235   0.0104119   0.0142536   0.0059459   0.0017100  -0.0039594
    3   0.0590841   0.0094354  -0.0218670   0.0230649   0.0000526   0.0027888
           13          14          15          16          17          18
    1   0.0000348  -0.0004219   0.0021209  -0.0010861   0.0048230   0.0024327
    2  -0.0025392   0.0021879  -0.0043124  -0.0008094  -0.0063550  -0.0019197
    3  -0.0001627  -0.0064543   0.0049975   0.0002853  -0.0028084   0.0017128
           19          20          21          22          23          24
    1  -0.0001204   0.0062686   0.0011239   0.0023768  -0.0123650  -0.0075807
    2   0.0010053   0.0175305   0.0009121  -0.0000513  -0.0058472   0.0046180
    3  -0.0019831  -0.0097903   0.0024222  -0.0009338  -0.0049882  -0.0007836
           25          26          27          28          29          30
    1   0.0295735   0.0077379  -0.0038172  -0.0014007  -0.0112606   0.0015165
    2  -0.0072438   0.0069347   0.0000953  -0.0020232  -0.0065488   0.0012783
    3   0.0017804  -0.0112332   0.0011571  -0.0012632   0.0135914   0.0022127
 Max gradient component =       7.372E-02
 RMS gradient           =       1.663E-02
 Gradient time:  CPU 62.84 s  wall 5.46 s
 Geometry Optimization Parameters
   NAtoms,    NIC,     NZ,  NCons,   NDum,   NFix, NCnnct, MaxDiis
       30     287       0       0       0       0       0       0

 Cartesian Hessian Update
 Hessian Updated using BFGS Update


** GEOMETRY OPTIMIZATION IN DELOCALIZED INTERNAL COORDINATES **
   Searching for a Minimum

   Optimization Cycle:   3

                       Coordinates (Angstroms)
     ATOM                X               Y               Z
      1  O         0.6651063134    1.5908085993    1.4656799356
      2  O         0.9955869138    2.1895047689    2.5962082223
      3  Fe        0.1974858594    0.7914794764    0.0122234140
      4  N         2.3490524965    1.5500046187   -1.3115538111
      5  C         3.4260094729    0.8394307558   -0.8514794561
      6  N         3.1453114793   -0.4912712483   -0.7519858778
      7  C         1.7743946820   -0.7434141074   -1.0996786636
      8  C         1.3696275518    0.6038029817   -1.5057423057
      9  H         1.6600279544   -1.5404911780   -1.8519013401
     10  H         0.3962723057    0.8924452280   -1.9463457057
     11  H         4.3941042940    1.2869208269   -0.5962498843
     12  H         3.8304401092   -1.2151450611   -0.4865472667
     13  H        -0.8082310345   -4.3663769424   -0.1654630567
     14  C        -0.5038007734   -3.3610549584    0.1312788170
     15  H         0.1532977241   -3.7721335762    2.1609373976
     16  N         0.0172373037   -3.0831262109    1.4067531495
     17  C        -0.5204495160   -2.1679732092   -0.5422960932
     18  C         0.3062784624   -1.7635511906    1.4983000716
     19  H        -0.8613546189   -1.9557065289   -1.5552096633
     20  N        -0.0173249161   -1.1499620731    0.3183259728
     21  H         0.7224793044   -1.2815418364    2.3868608513
     22  H        -2.1040998805    0.9727206466   -2.5381030152
     23  C        -2.4506155358    0.7149028248   -1.5348927611
     24  H        -1.9293319101    2.3782643546   -0.3734284781
     25  N        -1.8194534561    1.3364772182   -0.3421179069
     26  C        -3.4399068342   -0.1026554231   -1.1053931177
     27  C        -2.6797934816    0.7943373403    0.7616717155
     28  H        -4.1146438631   -0.7355121294   -1.6871551019
     29  N        -3.5719435752   -0.0489764766    0.3397788814
     30  H        -2.5134450964    1.1258832320    1.7922986586
   Point Group: c1    Number of degrees of freedom:    84


   Energy is  -2091.006981644

 Hessian Updated using BFGS Update

 84 Hessian modes will be used to form the next step
  Hessian Eigenvalues:
     0.002000    0.002179    0.004775    0.007710    0.008226    0.008666
     0.010076    0.013543    0.013671    0.014856    0.015511    0.015660
     0.016575    0.017644    0.017815    0.018177    0.019005    0.021426
     0.022425    0.022640    0.025801    0.030398    0.033615    0.037312
     0.046950    0.056847    0.058504    0.070220    0.077824    0.081259
     0.088302    0.107831    0.117609    0.121395    0.129701    0.138799
     0.159749    0.159912    0.159953    0.159978    0.159991    0.159999
     0.159999    0.160000    0.160318    0.166661    0.184246    0.186944
     0.199794    0.200005    0.219502    0.225807    0.229277    0.234414
     0.235075    0.250163    0.265442    0.281319    0.305285    0.313861
     0.326098    0.326933    0.328819    0.331888    0.334030    0.334798
     0.337112    0.339424    0.341069    0.370220    0.379336    0.387650
     0.394383    0.396579    0.409719    0.414762    0.448946    0.457882
     0.479828    0.497419    0.509069    0.511562    0.537463    0.611510

 Minimum Search - Taking Simple RFO Step
 Searching for Lamda that Minimizes Along All modes
 Value Taken    Lamda =  -0.05373143
 Calculated Step too Large.  Step scaled by  0.459736
 Step Taken.  Stepsize is  0.300000

                             Maximum     Tolerance    Cnvgd?
         Gradient           0.040467      0.000300      NO
         Displacement       0.124157      0.001200      NO
         Energy change     -0.031527      0.000001      NO


 New Cartesian Coordinates Obtained by Inverse Iteration

 Displacement from previous Coordinates is:  0.638676
 ----------------------------------------------------------------
             Standard Nuclear Orientation (Angstroms)
    I     Atom           X                Y                Z
 ----------------------------------------------------------------
    1      O       0.6636261822     1.5736882327     1.5004923587
    2      O       0.9748564798     2.1526665416     2.6151320079
    3      Fe      0.2053309214     0.7736420207     0.0038713026
    4      N       2.3759348422     1.5675426251    -1.3049489042
    5      C       3.4539643300     0.8789791878    -0.8610753667
    6      N       3.1959596722    -0.4659942891    -0.8129916413
    7      C       1.8564600466    -0.7238787204    -1.1805371455
    8      C       1.4115197544     0.6120994102    -1.5409576859
    9      H       1.7333113283    -1.5221402442    -1.9282833527
   10      H       0.4428716785     0.8931617836    -1.9892549847
   11      H       4.4068595827     1.3341467654    -0.5762235311
   12      H       3.8846570960    -1.1856424730    -0.5631591043
   13      H      -0.8911763534    -4.3559658885    -0.1093786016
   14      C      -0.5669135760    -3.3547428031     0.1736944133
   15      H       0.0676130222    -3.7431167989     2.2041787067
   16      N      -0.0480447930    -3.0662682380     1.4421868359
   17      C      -0.5573831990    -2.1698276414    -0.5199560145
   18      C       0.2623026553    -1.7513374876     1.5126873737
   19      H      -0.8915649824    -1.9683162976    -1.5356273231
   20      N      -0.0417942486    -1.1578287415     0.3252908383
   21      H       0.6786370960    -1.2611385343     2.3939418466
   22      H      -2.1157045220     0.9963699687    -2.5265925375
   23      C      -2.4500350985     0.7173384891    -1.5261372500
   24      H      -1.9303422982     2.3590203352    -0.3416513863
   25      N      -1.8282451427     1.3200853643    -0.3311800327
   26      C      -3.4280755620    -0.1239197791    -1.1041471471
   27      C      -2.6622498087     0.7499838828     0.7654317806
   28      H      -4.0980611606    -0.7538244143    -1.6908976312
   29      N      -3.5418821894    -0.0945177828     0.3298828884
   30      H      -2.4941140182     1.0578262491     1.8009828698
 ----------------------------------------------------------------
 Molecular Point Group                 C1    NOp =  1
 Largest Abelian Subgroup              C1    NOp =  1
 Nuclear Repulsion Energy =  1772.0236652484 hartrees
 There are       76 alpha and       72 beta electrons
 Applying Cartesian multipole field
    Component          Value
    ---------          -----
     (2,0,0)        1.00000E-11
     (0,2,0)        2.00000E-11
     (0,0,2)       -3.00000E-11
 Nucleus-field energy     =     0.0000000238 hartrees
 Requested basis set is VDZ
 There are 118 shells and 198 basis functions
 A cutoff of  1.0D-12 yielded   6049 shell pairs
 There are     17623 function pairs (     18015 Cartesian)
 Smallest overlap matrix eigenvalue = 1.70E-03
 Guess MOs from SCF MO coefficient file

 -----------------------------------------------------------------------
  General SCF calculation program by
  Eric Jon Sundstrom, Paul Horn, Yuezhi Mao, Dmitri Zuev, Alec White,
  David Stuck, Shaama M.S., Shane Yost, Joonho Lee, David Small,
  Daniel Levine, Susi Lehtola, Hugh Burton, Evgeny Epifanovsky
 -----------------------------------------------------------------------
 Exchange:     0.2000 Hartree-Fock + 0.0800 Slater + 0.7200 B88
 Correlation:  0.1900 VWN1RPA + 0.8100 LYP
 Using SG-1 standard quadrature grid
 using 12 threads for integral computing
 -------------------------------------------------------
 OpenMP Integral computing Module                
 Release: version 1.0, May 2013, Q-Chem Inc. Pittsburgh 
 -------------------------------------------------------
 -------------------------------------------------------
 OpenMP BLAS3 based DFT computing Module                
 Release: version 1.0, May 2013, Q-Chem Inc. Pittsburgh 
 -------------------------------------------------------
 A unrestricted SCF calculation will be
 performed using DIIS, GDM
 SCF converges when RMS gradient is below 1.0e-08
 ---------------------------------------
  Cycle       Energy         DIIS error
 ---------------------------------------
    1   -2091.0210416378      4.25e-04  
    2   -2091.0278251721      1.50e-04  Done DIIS. Switching to GDM
 ---------------------------------------
  Cycle       Energy        RMS Gradient
 ---------------------------------------
    1   -2091.0278251721      2.49e-02   Normal BFGS step
    2   -2091.0203073581      1.95e-01  Line search: overstep
    3   -2091.0281678532      6.10e-03   Normal BFGS step
    4   -2091.0277714660      2.27e-02  Line search: overstep
    5   -2091.0283165914      4.59e-03   Normal BFGS step
    6   -2091.0284413879      3.55e-03   Normal BFGS step
    7   -2091.0285026698      4.20e-03   Normal BFGS step
    8   -2091.0285949107      2.25e-03   Normal BFGS step
    9   -2091.0286345183      3.19e-03   Normal BFGS step
   10   -2091.0286567941      2.06e-03   Normal BFGS step
   11   -2091.0286751262      1.02e-03   Normal BFGS step
   12   -2091.0286832934      8.42e-04   Normal BFGS step
   13   -2091.0286936185      7.54e-04   Normal BFGS step
   14   -2091.0286970734      5.28e-04   Normal BFGS step
   15   -2091.0287002833      3.80e-04   Normal BFGS step
   16   -2091.0287011311      3.97e-04   Normal BFGS step
   17   -2091.0287019202      2.69e-04   Normal BFGS step
   18   -2091.0287026992      1.74e-04   Normal BFGS step
   19   -2091.0287033595      2.17e-04   Normal BFGS step
   20   -2091.0287037576      1.63e-04   Normal BFGS step
   21   -2091.0287040095      9.79e-05   Normal BFGS step
   22   -2091.0287041214      9.35e-05   Normal BFGS step
   23   -2091.0287041594      6.84e-05   Normal BFGS step
   24   -2091.0287041468      3.04e-04   Normal BFGS step
   25   -2091.0287041736      6.46e-05   Normal BFGS step
   26   -2091.0287042285      3.82e-05   Normal BFGS step
   27   -2091.0287042359      4.45e-05   Normal BFGS step
   28   -2091.0287042484      3.64e-05   Normal BFGS step
   29   -2091.0287042524      2.06e-05   Normal BFGS step
   30   -2091.0287042590      1.43e-05   Normal BFGS step
   31   -2091.0287042600      2.55e-05   Normal BFGS step
   32   -2091.0287042619      1.26e-05   Normal BFGS step
   33   -2091.0287042630      8.70e-06   Normal BFGS step
   34   -2091.0287042639      5.54e-06   Normal BFGS step
   35   -2091.0287042642      4.52e-06   Normal BFGS step
   36   -2091.0287042644      3.67e-06   Normal BFGS step
   37   -2091.0287042645      2.87e-06   Normal BFGS step
   38   -2091.0287042646      2.05e-06   Normal BFGS step
   39   -2091.0287042647      1.62e-06   Normal BFGS step
   40   -2091.0287042647      1.24e-06   Normal BFGS step
   41   -2091.0287042647      9.36e-07   Normal BFGS step
   42   -2091.0287042647      6.45e-07   Normal BFGS step
   43   -2091.0287042647      1.23e-06   Normal BFGS step
   44   -2091.0287042647      2.41e-06   Normal BFGS step
   45   -2091.0287042647      3.22e-07   Normal BFGS step
   46   -2091.0287042647      4.28e-07   Normal BFGS step
   47   -2091.0287042647      9.58e-08   Normal BFGS step
   48   -2091.0287042647      1.66e-07   Normal BFGS step
   49   -2091.0287042647      6.43e-08   Normal BFGS step
   50   -2091.0287042647      6.97e-08   Normal BFGS step
   51   -2091.0287042647      9.15e-08   Normal BFGS step
[...]
 Largest Abelian Subgroup              C1    NOp =  1
 Nuclear Repulsion Energy =  1694.4352277742 hartrees
 There are       76 alpha and       72 beta electrons
 Applying Cartesian multipole field
    Component          Value
    ---------          -----
     (2,0,0)        1.00000E-11
     (0,2,0)        2.00000E-11
     (0,0,2)       -3.00000E-11
 Nucleus-field energy     =     0.0000000029 hartrees
 Requested basis set is VDZ
 There are 118 shells and 198 basis functions
 A cutoff of  1.0D-12 yielded   5759 shell pairs
 There are     16877 function pairs (     17264 Cartesian)
 Smallest overlap matrix eigenvalue = 1.79E-03
 Guess MOs from SCF MO coefficient file

 -----------------------------------------------------------------------
  General SCF calculation program by
  Eric Jon Sundstrom, Paul Horn, Yuezhi Mao, Dmitri Zuev, Alec White,
  David Stuck, Shaama M.S., Shane Yost, Joonho Lee, David Small,
  Daniel Levine, Susi Lehtola, Hugh Burton, Evgeny Epifanovsky
 -----------------------------------------------------------------------
 Exchange:     0.2000 Hartree-Fock + 0.0800 Slater + 0.7200 B88
 Correlation:  0.1900 VWN1RPA + 0.8100 LYP
 Using SG-1 standard quadrature grid
 using 12 threads for integral computing
 -------------------------------------------------------
 OpenMP Integral computing Module                
 Release: version 1.0, May 2013, Q-Chem Inc. Pittsburgh 
 -------------------------------------------------------
 -------------------------------------------------------
 OpenMP BLAS3 based DFT computing Module                
 Release: version 1.0, May 2013, Q-Chem Inc. Pittsburgh 
 -------------------------------------------------------
 A unrestricted SCF calculation will be
 performed using DIIS, GDM
 SCF converges when RMS gradient is below 1.0e-08
 ---------------------------------------
  Cycle       Energy         DIIS error
 ---------------------------------------
    1   -2091.1687702496      7.68e-05  
    2   -2091.1690343647      1.10e-05  Done DIIS. Switching to GDM
 ---------------------------------------
  Cycle       Energy        RMS Gradient
 ---------------------------------------
    1   -2091.1690343647      7.13e-04   Normal BFGS step
    2   -2091.1690338474      1.40e-03  Line search: overstep
    3   -2091.1690376340      3.36e-04   Normal BFGS step
    4   -2091.1690388371      4.58e-04   Normal BFGS step
    5   -2091.1690389735      5.27e-04   Normal BFGS step
    6   -2091.1690393095      1.67e-04   Normal BFGS step
    7   -2091.1690393125      2.31e-04   Normal BFGS step
    8   -2091.1690394539      8.96e-05   Normal BFGS step
    9   -2091.1690394575      1.07e-04   Normal BFGS step
   10   -2091.1690395214      5.39e-05   Normal BFGS step
   11   -2091.1690395394      4.78e-05   Normal BFGS step
   12   -2091.1690395643      5.60e-05   Normal BFGS step
   13   -2091.1690396062      6.03e-05   Normal BFGS step
   14   -2091.1690396272      4.87e-05   Normal BFGS step
   15   -2091.1690396519      2.72e-05   Normal BFGS step
   16   -2091.1690396614      2.36e-05   Normal BFGS step
   17   -2091.1690396663      1.13e-05   Normal BFGS step
   18   -2091.1690396666      8.61e-06   Normal BFGS step
   19   -2091.1690396673      6.17e-06   Normal BFGS step
   20   -2091.1690396677      4.23e-06   Normal BFGS step
   21   -2091.1690396678      5.17e-06   Normal BFGS step
   22   -2091.1690396680      4.84e-06   Normal BFGS step
   23   -2091.1690396681      3.71e-06   Normal BFGS step
   24   -2091.1690396682      4.54e-06   Normal BFGS step
   25   -2091.1690396683      5.98e-06   Normal BFGS step
   26   -2091.1690396683      3.01e-06   Normal BFGS step
   27   -2091.1690396683      1.87e-06   Normal BFGS step
   28   -2091.1690396683      2.10e-06   Normal BFGS step
   29   -2091.1690396683      1.08e-06   Normal BFGS step
   30   -2091.1690396683      8.45e-07   Normal BFGS step
   31   -2091.1690396683      5.47e-07   Normal BFGS step
   32   -2091.1690396683      4.52e-07   Normal BFGS step
   33   -2091.1690396684      2.77e-07   Normal BFGS step
   34   -2091.1690396684      1.93e-07   Normal BFGS step
   35   -2091.1690396684      1.02e-07   Normal BFGS step
   36   -2091.1690396684      1.21e-07   Normal BFGS step
   37   -2091.1690396684      6.09e-08   Normal BFGS step
   38   -2091.1690396684      3.87e-08   Normal BFGS step
   39   -2091.1690396684      2.01e-08   Normal BFGS step
   40   -2091.1690396684      1.73e-08   Normal BFGS step
   41   -2091.1690396684      6.84e-09  Convergence criterion met
 ---------------------------------------
 SCF time:   CPU 818.08s  wall 68.00s 
<S^2> =          6.410406064
 SCF   energy in the final basis set =    -2091.1690396684
 Total energy in the final basis set =    -2091.1690396684
 
 --------------------------------------------------------------
 
                    Orbital Energies (a.u.)
 --------------------------------------------------------------
 
 Alpha MOs
 -- Occupied --
******* -30.351 -26.221 -26.220 -26.211 -19.595 -19.582 -14.681
-14.672 -14.664 -14.650 -14.643 -14.592 -10.551 -10.543 -10.524
-10.499 -10.495 -10.495 -10.490 -10.485 -10.477  -3.799  -2.584
 -2.571  -2.568  -1.580  -1.312  -1.304  -1.284  -1.167  -1.158
 -1.151  -1.127  -1.036  -1.027  -1.016  -0.908  -0.900  -0.887
 -0.879  -0.878  -0.858  -0.854  -0.849  -0.847  -0.839  -0.835
 -0.825  -0.755  -0.743  -0.736  -0.730  -0.722  -0.721  -0.715
 -0.715  -0.708  -0.705  -0.703  -0.684  -0.678  -0.666  -0.629
 -0.627  -0.615  -0.611  -0.596  -0.588  -0.585  -0.569  -0.566
 -0.525  -0.522  -0.520  -0.513
 -- Virtual --
 -0.405  -0.288  -0.277  -0.268  -0.237  -0.235  -0.225  -0.210
 -0.193  -0.185  -0.179  -0.172  -0.167  -0.150  -0.147  -0.139
 -0.126  -0.116  -0.108  -0.103  -0.096  -0.090  -0.086  -0.076
 -0.064  -0.057  -0.046  -0.038  -0.024  -0.007   0.019   0.041
  0.051   0.075   0.094   0.106   0.108   0.118   0.130   0.134
  0.145   0.164   0.174   0.194   0.198   0.223   0.226   0.231
  0.235   0.246   0.252   0.253   0.258   0.263   0.266   0.274
  0.284   0.305   0.312   0.326   0.340   0.367   0.368   0.381
  0.386   0.400   0.414   0.435   0.448   0.453   0.455   0.467
  0.475   0.490   0.496   0.500   0.502   0.508   0.514   0.522
  0.524   0.532   0.544   0.547   0.548   0.566   0.574   0.580
  0.591   0.616   0.624   0.632   0.645   0.657   0.679   0.706
  0.727   0.732   0.735   0.760   0.775   0.804   0.809   0.819
  0.833   0.857   0.869   0.902   0.922   0.935   0.968   0.999
  1.017   1.030   1.043   1.051   1.112   1.150   1.169   1.224
  1.266   1.364
 
 Beta MOs
 -- Occupied --
******* -30.311 -26.198 -26.185 -26.171 -19.562 -19.555 -14.681
-14.672 -14.664 -14.651 -14.643 -14.591 -10.550 -10.543 -10.524
-10.499 -10.495 -10.495 -10.490 -10.485 -10.477  -3.700  -2.498
 -2.466  -2.443  -1.518  -1.311  -1.303  -1.284  -1.167  -1.158
 -1.151  -1.044  -1.035  -1.027  -1.016  -0.908  -0.900  -0.887
 -0.879  -0.878  -0.857  -0.850  -0.842  -0.825  -0.800  -0.754
 -0.747  -0.744  -0.739  -0.733  -0.728  -0.721  -0.719  -0.715
 -0.713  -0.707  -0.704  -0.701  -0.680  -0.678  -0.643  -0.602
 -0.598  -0.586  -0.540  -0.540  -0.525  -0.522  -0.519  -0.512
 -- Virtual --
 -0.427  -0.427  -0.361  -0.352  -0.345  -0.281  -0.274  -0.262
 -0.235  -0.231  -0.223  -0.208  -0.190  -0.183  -0.173  -0.168
 -0.158  -0.146  -0.139  -0.132  -0.125  -0.114  -0.105  -0.101
 -0.095  -0.089  -0.081  -0.072  -0.063  -0.056  -0.040  -0.034
 -0.023  -0.006   0.022   0.043   0.051   0.076   0.095   0.106
  0.108   0.120   0.131   0.135   0.147   0.166   0.176   0.195
  0.199   0.224   0.226   0.231   0.237   0.248   0.252   0.255
  0.259   0.264   0.268   0.275   0.285   0.306   0.314   0.328
  0.341   0.369   0.374   0.383   0.391   0.403   0.415   0.436
  0.449   0.454   0.457   0.468   0.476   0.491   0.500   0.500
  0.507   0.512   0.515   0.523   0.526   0.534   0.546   0.550
  0.563   0.582   0.588   0.591   0.614   0.623   0.646   0.656
  0.665   0.680   0.688   0.720   0.733   0.739   0.748   0.770
  0.785   0.811   0.823   0.835   0.849   0.876   0.879   0.909
  0.941   0.948   0.981   1.003   1.018   1.038   1.050   1.055
  1.117   1.168   1.190   1.227   1.278   1.369
 --------------------------------------------------------------
 
          Ground-State Mulliken Net Atomic Charges

     Atom                 Charge (a.u.)    Spin (a.u.)
  --------------------------------------------------------
      1 O                    -0.158184       0.843053
      2 O                     0.154193       1.112671
      3 Fe                    1.287827       2.051022
      4 N                    -0.615922      -0.026936
      5 C                     0.262888       0.021212
      6 N                    -0.334116       0.003364
      7 C                     0.130237       0.001596
      8 C                     0.037131       0.001703
      9 H                     0.170185      -0.000457
     10 H                     0.134439       0.000274
     11 H                     0.159273      -0.002988
     12 H                     0.310826      -0.000258
     13 H                     0.166599      -0.000461
     14 C                     0.124284       0.002757
     15 H                     0.308726      -0.000026
     16 N                    -0.333782       0.001694
     17 C                     0.064270      -0.000970
     18 C                     0.264461       0.016166
     19 H                     0.134339       0.000249
     20 N                    -0.617122      -0.018122
     21 H                     0.155016      -0.002621
     22 H                     0.154562       0.000088
     23 C                     0.015912       0.006642
     24 H                     0.314950       0.002431
     25 N                    -0.648084      -0.023071
     26 C                     0.056819       0.000460
     27 C                     0.134317      -0.000809
     28 H                     0.161011      -0.000197
     29 N                    -0.157442       0.011291
     30 H                     0.162386       0.000241
  --------------------------------------------------------
  Sum of atomic charges =     2.000000
  Sum of spin   charges =     4.000000

 -----------------------------------------------------------------
                    Cartesian Multipole Moments
 -----------------------------------------------------------------
    Charge (ESU x 10^10)
                 9.6064
    Dipole Moment (Debye)
         X       5.9265      Y      -3.3090      Z      -0.4573
       Tot       6.8031
    Quadrupole Moments (Debye-Ang)
        XX     -54.2962     XY      30.8047     YY     -61.8680
        XZ     -15.6703     YZ     -25.2658     ZZ     -53.5623
    Octopole Moments (Debye-Ang^2)
       XXX     181.6518    XXY      69.3187    XYY     -42.7980
       YYY     -23.7610    XXZ     -95.6165    XYZ      -3.6733
       YYZ      78.7592    XZZ      40.6929    YZZ     -16.9072
       ZZZ      14.8253
    Hexadecapole Moments (Debye-Ang^3)
      XXXX   -1985.4874   XXXY     -24.5744   XXYY    -518.1728
      XYYY    -130.5941   YYYY   -1149.1280   XXXZ      96.1295
      XXYZ     -19.6097   XYYZ     -44.7499   YYYZ      75.1881
      XXZZ    -476.2809   XYZZ      25.1874   YYZZ    -321.2263
      XZZZ      85.2093   YZZZ     113.7309   ZZZZ   -1296.3273
 -----------------------------------------------------------------
 Calculating analytic gradient of the SCF energy
 Gradient of SCF Energy
            1           2           3           4           5           6
    1   0.0000676   0.0001269   0.0000203  -0.0000596   0.0000395  -0.0002594
    2   0.0002249  -0.0000180  -0.0011416   0.0004323  -0.0000416   0.0001265
    3   0.0009277  -0.0002166  -0.0007919   0.0006661   0.0000619   0.0003126
            7           8           9          10          11          12
    1  -0.0001784  -0.0000427   0.0000866   0.0004428  -0.0000484   0.0000054
    2  -0.0003651   0.0004630  -0.0001724   0.0000387  -0.0000479  -0.0000311
    3  -0.0003555  -0.0010933  -0.0000323   0.0005713  -0.0000071  -0.0000767
           13          14          15          16          17          18
    1  -0.0000014   0.0000840  -0.0000169   0.0000360  -0.0002100   0.0000561
    2   0.0000017  -0.0000203  -0.0000094   0.0001699  -0.0000569   0.0000333
    3  -0.0000151  -0.0001060   0.0000017  -0.0000134   0.0002037   0.0002469
           19          20          21          22          23          24
    1  -0.0000065   0.0002764  -0.0000025   0.0000470  -0.0003250   0.0001332
    2   0.0000321   0.0002531  -0.0000346   0.0000180  -0.0000200   0.0000047
    3  -0.0000398  -0.0002797  -0.0000396  -0.0000680  -0.0000333   0.0000267
           25          26          27          28          29          30
    1  -0.0003698   0.0001974  -0.0003246   0.0000314   0.0002473  -0.0000526
    2  -0.0001294   0.0000876  -0.0000338   0.0000001   0.0001977   0.0000385
    3   0.0000426  -0.0001786   0.0000866  -0.0000303   0.0002098   0.0000191
 Max gradient component =       1.142E-03
 RMS gradient           =       2.802E-04
 Gradient time:  CPU 54.72 s  wall 4.72 s
 Geometry Optimization Parameters
   NAtoms,    NIC,     NZ,  NCons,   NDum,   NFix, NCnnct, MaxDiis
       30     287       0       0       0       0       0       0

 Cartesian Hessian Update
 Hessian Updated using BFGS Update


** GEOMETRY OPTIMIZATION IN DELOCALIZED INTERNAL COORDINATES **
   Searching for a Minimum

   Optimization Cycle:  50

                       Coordinates (Angstroms)
     ATOM                X               Y               Z
      1  O         1.1983968913    0.6239479828    1.9031856705
      2  O         1.5217014994    1.3165940428    2.8965091327
      3  Fe        0.3868996965   -0.2657630044    0.0605007769
      4  N         1.7588880252    0.4825216840   -1.1147846839
      5  C         2.9349831542    1.0574498213   -0.7617657099
      6  N         3.6608744444    1.3038830949   -1.8768554338
      7  C         2.9507761189    0.8778284161   -2.9977742829
      8  C         1.7644104168    0.3715732996   -2.5210754663
      9  H         3.3413038349    0.9620350989   -4.0094542879
     10  H         0.9495440469   -0.0795300761   -3.0805569895
     11  H         3.2668969613    1.2959224131    0.2460078164
     12  H         4.5872519210    1.7320942550   -1.8961711972
     13  H        -2.3281210123   -4.5276399936    1.1901383535
     14  C        -1.7134014113   -3.6341869929    1.2698044592
     15  H        -1.2485110613   -3.6904994986    3.3685381239
     16  N        -1.1421733772   -3.2167474241    2.4710352709
     17  C        -1.3248839527   -2.7125602620    0.3264217990
     18  C        -0.4305272305   -2.0861994507    2.2615958066
     19  H        -1.5611315930   -2.6856797952   -0.7338051742
     20  N        -0.5169599643   -1.7431704278    0.9513012840
     21  H         0.1107774524   -1.5540735974    3.0399188811
     22  H        -1.5773704374    0.0804005843   -2.6465542132
     23  C        -1.9757129955    0.2331373392   -1.6453346051
     24  H        -0.7458890383    1.7946837663   -0.9125684593
     25  N        -1.2075145596    0.9198532230   -0.6143598540
     26  C        -3.1907275556   -0.0639251949   -1.1049859110
     27  C        -2.1669332802    1.0466487178    0.4894437067
     28  H        -4.0329360723   -0.5840298349   -1.5577840410
     29  N        -3.2815957102    0.4433272107    0.2220384354
     30  H        -1.9199974765    1.5901953253    1.4021643744
   Point Group: c1    Number of degrees of freedom:    84


   Energy is  -2091.169039668

 Hessian Updated using BFGS Update

 84 Hessian modes will be used to form the next step
  Hessian Eigenvalues:
     0.001181    0.001931    0.004553    0.006900    0.007992    0.009236
     0.009795    0.011955    0.013581    0.015741    0.016382    0.017524
     0.017861    0.018180    0.020263    0.021438    0.022140    0.023589
     0.029349    0.030781    0.033373    0.034124    0.037216    0.040714
     0.042978    0.044047    0.048017    0.068982    0.075276    0.081363
     0.091299    0.104147    0.114003    0.125862    0.141625    0.159812
     0.159948    0.159995    0.160020    0.160075    0.160133    0.160259
     0.160379    0.160690    0.174772    0.191488    0.198575    0.201937
     0.220514    0.225676    0.229504    0.234621    0.277133    0.282979
     0.302768    0.305354    0.320245    0.326238    0.327999    0.331768
     0.334442    0.334693    0.336935    0.339352    0.340861    0.341611
     0.363697    0.375787    0.380850    0.385961    0.394267    0.404005
     0.410441    0.420910    0.450341    0.468441    0.479000    0.506183
     0.510011    0.547316    0.556523    0.612165    0.736006    1.032424

 Minimum Search - Taking Simple RFO Step
 Searching for Lamda that Minimizes Along All modes
 Value Taken    Lamda =  -0.00003403
 Step Taken.  Stepsize is  0.084285

                             Maximum     Tolerance    Cnvgd?
         Gradient           0.000585      0.000300      NO
         Displacement       0.033533      0.001200      NO
         Energy change     -0.000025      0.000001      NO


 New Cartesian Coordinates Obtained by Inverse Iteration

 Displacement from previous Coordinates is:  0.173908
 ----------------------------------------------------------------
             Standard Nuclear Orientation (Angstroms)
    I     Atom           X                Y                Z
 ----------------------------------------------------------------
    1      O       1.2038033982     0.6233398818     1.9049520937
    2      O       1.5231984200     1.3132840578     2.9016113574
    3      Fe      0.3905206894    -0.2620167531     0.0660327402
    4      N       1.7628626627     0.4810001023    -1.1100752621
    5      C       2.9415011885     1.0524643116    -0.7621763568
    6      N       3.6597959795     1.3036799511    -1.8814875455
    7      C       2.9403497182     0.8861308214    -2.9991877553
    8      C       1.7575707558     0.3772604193    -2.5162553481
    9      H       3.3261220209     0.9718213654    -4.0125299676
   10      H       0.9391116736    -0.0723785511    -3.0727065487
   11      H       3.2808061409     1.2859224266     0.2444195002
   12      H       4.5867197226     1.7305568689    -1.9048393489
   13      H      -2.3158473057    -4.5341891386     1.1717119510
   14      C      -1.7079841567    -3.6367172448     1.2586387892
   15      H      -1.2716627459    -3.6873081022     3.3635970042
   16      N      -1.1560143776    -3.2141269360     2.4669111112
   17      C      -1.3117884600    -2.7140092831     0.3193191799
   18      C      -0.4483203871    -2.0794584514     2.2655794648
   19      H      -1.5334434182    -2.6902905182    -0.7441028286
   20      N      -0.5191139609    -1.7383687249     0.9538877482
   21      H       0.0790615992    -1.5432539239     3.0507151375
   22      H      -1.5789477504     0.0565689204    -2.6391954588
   23      C      -1.9739763264     0.2199635156    -1.6384635736
   24      H      -0.7410252066     1.7889224670    -0.9253848574
   25      N      -1.2017967805     0.9171825082    -0.6169975890
   26      C      -3.1877800557    -0.0704839472    -1.0922210577
   27      C      -2.1593447096     1.0565984346     0.4872490996
   28      H      -4.0315858394    -0.5948595670    -1.5370903199
   29      N      -3.2753301345     0.4517767521     0.2291487461
   30      H      -1.9091446194     1.6090790600     1.3937134770
 ----------------------------------------------------------------
 Molecular Point Group                 C1    NOp =  1
 Largest Abelian Subgroup              C1    NOp =  1
 Nuclear Repulsion Energy =  1695.1339622385 hartrees
 There are       76 alpha and       72 beta electrons


 *******************************************
 **  MAXIMUM OPTIMIZATION CYCLES REACHED  **
 *******************************************

 Q-Chem fatal error occurred in module 0, line  456:

 Maximum optimization cycles reached

