
Running Job 1 of 1 sys_1_opt_vdz_gga.in
qchem sys_1_opt_vdz_gga.in_6752.0 /scr/c295_lal/137084/qchem6752/ 1
/usr/software/qchem_511/exe/qcprog.exe_s sys_1_opt_vdz_gga.in_6752.0 /scr/c295_lal/137084/qchem6752/
Check license passed

                  Welcome to Q-Chem
     A Quantum Leap Into The Future Of Chemistry


 Q-Chem 5.1, Q-Chem, Inc., Pleasanton, CA (2018)

 Yihan Shao,  Zhengting Gan,  E. Epifanovsky,  A. T. B. Gilbert,  M. Wormit,  
 J. Kussmann,  A. W. Lange,  A. Behn,  Jia Deng,  Xintian Feng,  D. Ghosh,  
 M. Goldey,  P. R. Horn,  L. D. Jacobson,  I. Kaliman,  T. Kus,  A. Landau,  
 Jie Liu,  E. I. Proynov,  R. M. Richard,  R. P. Steele,  E. J. Sundstrom,  
 H. L. Woodcock III,  P. M. Zimmerman,  D. Zuev,  B. Albrecht,  E. Alguire,  
 S. A. Baeppler,  D. Barton,  Z. Benda,  Y. A. Bernard,  E. J. Berquist,  
 K. B. Bravaya,  H. Burton,  D. Casanova,  Chun-Min Chang,  Yunqing Chen,  
 A. Chien,  K. D. Closser,  M. P. Coons,  S. Coriani,  S. Dasgupta,  
 A. L. Dempwolff,  M. Diedenhofen,  Hainam Do,  R. G. Edgar,  Po-Tung Fang,  
 S. Faraji,  S. Fatehi,  Qingguo Feng,  K. D. Fenk,  J. Fosso-Tande,  
 Qinghui Ge,  A. Ghysels,  G. Gidofalvi,  J. Gomes,  J. Gonthier,  A. Gunina,  
 D. Hait,  M. W. D. Hanson-Heine,  P. H. P. Harbach,  A. W. Hauser,  
 J. E. Herr,  E. G. Hohenstein,  Z. C. Holden,  Kerwin Hui,  B. C. Huynh,  
 T.-C. Jagau,  Hyunjun Ji,  B. Kaduk,  K. Khistyaev,  Jaehoon Kim,  
 P. Klunzinger,  K. Koh,  D. Kosenkov,  L. Koulias,  T. Kowalczyk,  
 C. M. Krauter,  A. Kunitsa,  Ka Un Lao,  A. Laurent,  K. V. Lawler,  
 Joonho Lee,  D. Lefrancois,  S. Lehtola,  D. S. Levine,  Yi-Pei Li,  
 You-Sheng Lin,  Fenglai Liu,  E. Livshits,  A. Luenser,  P. Manohar,  
 E. Mansoor,  S. F. Manzer,  Shan-Ping Mao,  Yuezhi Mao,  N. Mardirossian,  
 A. V. Marenich,  T. Markovich,  L. A. Martinez-Martinez,  S. A. Maurer,  
 N. J. Mayhall,  S. C. McKenzie,  J.-M. Mewes,  A. F. Morrison,  
 J. W. Mullinax,  K. Nanda,  T. S. Nguyen-Beck,  R. Olivares-Amaya,  
 J. A. Parkhill,  T. M. Perrine,  F. Plasser,  P. Pokhilko,  S. Prager,  
 A. Prociuk,  E. Ramos,  D. R. Rehn,  F. Rob,  M. Schneider,  N. Sergueev,  
 S. M. Sharada,  S. Sharma,  D. W. Small,  T. Stauch,  T. Stein,  
 Yu-Chuan Su,  A. J. W. Thom,  A. Tkatchenko,  T. Tsuchimochi,  N. M. Tubman,  
 L. Vogt,  M. L. Vidal,  O. Vydrov,  M. A. Watson,  J. Wenzel,  
 M. de Wergifosse,  T. A. Wesolowski,  A. White,  J. Witte,  A. Yamada,  
 Jun Yang,  K. Yao,  S. Yeganeh,  S. R. Yost,  Zhi-Qiang You,  A. Zech,  
 Igor Ying Zhang,  Xing Zhang,  Yan Zhao,  Ying Zhu,  B. R. Brooks,  
 G. K. L. Chan,  C. J. Cramer,  M. S. Gordon,  W. J. Hehre,  A. Klamt,  
 M. W. Schmidt,  C. D. Sherrill,  D. G. Truhlar,  A. Aspuru-Guzik,  R. Baer,  
 A. T. Bell,  N. A. Besley,  Jeng-Da Chai,  A. E. DePrince, III,  
 R. A. DiStasio Jr.,  A. Dreuw,  B. D. Dunietz,  T. R. Furlani,  
 Chao-Ping Hsu,  Yousung Jung,  Jing Kong,  D. S. Lambrecht,  WanZhen Liang,  
 C. Ochsenfeld,  V. A. Rassolov,  L. V. Slipchenko,  J. E. Subotnik,  
 T. Van Voorhis,  J. M. Herbert,  A. I. Krylov,  P. M. W. Gill,  M. Head-Gordon

 Contributors to earlier versions of Q-Chem not listed above: 
 R. D. Adamson,  B. Austin,  J. Baker,  G. J. O. Beran,  K. Brandhorst,  
 S. T. Brown,  E. F. C. Byrd,  A. K. Chakraborty,  C.-L. Cheng,  
 Siu Hung Chien,  D. M. Chipman,  D. L. Crittenden,  H. Dachsel,  
 R. J. Doerksen,  A. D. Dutoi,  L. Fusti-Molnar,  W. A. Goddard III,  
 A. Golubeva-Zadorozhnaya,  S. R. Gwaltney,  G. Hawkins,  A. Heyden,  
 S. Hirata,  G. Kedziora,  F. J. Keil,  C. Kelley,  Jihan Kim,  R. A. King,  
 R. Z. Khaliullin,  P. P. Korambath,  W. Kurlancheek,  A. M. Lee,  M. S. Lee,  
 S. V. Levchenko,  Ching Yeh Lin,  D. Liotard,  R. C. Lochan,  I. Lotan,  
 P. E. Maslen,  N. Nair,  D. P. O'Neill,  D. Neuhauser,  E. Neuscamman,  
 C. M. Oana,  R. Olson,  B. Peters,  R. Peverati,  P. A. Pieniazek,  
 Y. M. Rhee,  J. Ritchie,  M. A. Rohrdanz,  E. Rosta,  N. J. Russ,  
 H. F. Schaefer III,  N. E. Schultz,  N. Shenvi,  A. C. Simmonett,  A. Sodt,  
 D. Stuck,  K. S. Thanthiriwatte,  V. Vanovschi,  Tao Wang,  A. Warshel,  
 C. F. Williams,  Q. Wu,  X. Xu,  W. Zhang

 Please cite Q-Chem as follows:
 Y. Shao et al., Mol. Phys. 113, 184-215 (2015)
 DOI: 10.1080/00268976.2014.952696

 Q-Chem 5.1.1 for Intel X86 EM64T Linux

 Parts of Q-Chem use Armadillo 8.300.2 (Tropical Shenanigans).
 http://arma.sourceforge.net/

 Q-Chem begins on Wed Oct 31 16:00:21 2018  

Host: cub-0-27.local
0

     Scratch files written to /scr/c295_lal/137084/qchem6752//
 Aug318 |scratch|qcdevops|jenkins|workspace|build_RNUM -1
Processing $rem in /usr/software/qchem_511/config/preferences.
 MEM_TOTAL  2000 
Input Ideriv = 2
Curr. Ideriv = -1
Max.  Ideriv = 2

Checking the input file for inconsistencies... 	...done.

--------------------------------------------------------------
User input:
--------------------------------------------------------------
$molecule
2 5
O         -0.95690        9.90394        6.98704
O          0.27849        9.93354        6.98704
Fe        -2.92494        9.86682        6.98704
N         -1.00586       12.49034        5.96233
C         -1.09101       11.63863        4.92061
N         -2.35758       11.47719        4.49788
C         -3.10966       12.25082        5.29529
C         -2.27597       12.87503        6.19604
H         -4.18471       12.35236        5.22619
H         -2.57367       13.56458        6.97439
H         -0.23802       11.14270        4.47677
H         -2.68725       10.87430        3.71210
H         -6.69688       10.49875        5.73540
C         -6.21811        9.67053        6.24071
H         -4.43511        9.41418        5.08715
N         -5.04434        9.12737        5.88410
C         -6.68608        8.99216        7.34379
C         -4.81620        8.13753        6.76571
H         -7.60843        9.18779        7.87375
N         -5.80521        8.02765        7.67553
H         -3.94067        7.50246        6.74844
H         -4.45295       11.84757        8.00825
C         -4.17766       11.10860        8.74811
H         -2.26722       10.44998        8.04178
N         -3.03943       10.39795        8.74217
C         -4.91561       10.72725        9.84571
C         -3.10019        9.60335        9.82570
H         -5.88483       11.11237       10.13223
N         -4.23936        9.78030       10.52481
H         -2.32626        8.90233       10.10609
H         -2.18034        6.49592        6.14758
C         -1.25689        6.88747        6.55273
H         -0.63988        8.25523        5.02663
N         -0.47783        7.79936        5.95117
C         -0.67460        6.55296        7.75474
C          0.55622        8.00480        6.78627
H         -1.05638        5.84437        8.47736
N          0.46598        7.25504        7.90335
H          1.36762        8.69187        6.58582
$end

$rem
BASIS = STO-3G
METHOD  = BLYP
JOBTYPE = OPT
MAX_SCF_CYCLES = 500
SCF_ALGORITHM = DIIS_GDM
$end
--------------------------------------------------------------
 ----------------------------------------------------------------
             Standard Nuclear Orientation (Angstroms)
    I     Atom           X                Y                Z
 ----------------------------------------------------------------
    1      O       1.6869506448    -0.2525358769    -0.5462396304
    2      O       2.8592104237    -0.2949721590    -0.9349178840
    3      Fe     -0.1821583089    -0.1936136151     0.0681862986
    4      N       1.4801477127    -3.0031865960    -0.9109940609
    5      C       1.8046747655    -2.7874854428     0.3797406948
    6      N       0.7324108177    -2.8425129413     1.1897932192
    7      C      -0.3145699879    -3.1017514052     0.3919103813
    8      C       0.1473456593    -3.2015126894    -0.9014222610
    9      H      -1.3377894438    -3.2095965183     0.7268865906
   10      H      -0.4480887190    -3.4037574650    -1.7814723544
   11      H       2.8119773365    -2.5925949817     0.7230942869
   12      H       0.7178292621    -2.7104188047     2.2251421394
   13      H      -3.5590144901    -1.3164699411     1.9468841404
   14      C      -3.0968909937    -0.3531299583     1.7768099536
   15      H      -1.0609752449    -0.7340102860     2.3111153304
   16      N      -1.7985544235    -0.0780145044     1.9731849213
   17      C      -3.7142695303     0.7931750026     1.3287073501
   18      C      -1.6451339349     1.2172281963     1.6447404403
   19      H      -4.7606563583     0.9022041689     1.0776187835
   20      N      -2.8023481438     1.7819214288     1.2447858744
   21      H      -0.7027898185     1.7460563845     1.6946729191
   22      H      -2.2228516131    -1.3743815132    -1.2518186241
   23      C      -2.0292012305    -0.3678843714    -1.5963720996
   24      H       0.0793895476    -0.1782577670    -1.2795913419
   25      N      -0.8271102959     0.2284318420    -1.5996275161
   26      C      -2.9509222248     0.5223919897    -2.0989277627
   27      C      -1.0325108821     1.4599410707    -2.0999412349
   28      H      -4.0106168994     0.3460727499    -2.2244556708
   29      N      -2.3257203343     1.6728918838    -2.4162253593
   30      H      -0.2523720935     2.1964474342    -2.2339452811
   31      H       1.2926021922     2.2916013590     2.1347963389
   32      C       2.0048581041     2.1434153067     1.3342026608
   33      H       2.7599116373     0.1865814055     1.7598142357
   34      N       2.7521754613     1.0422988167     1.1627047527
   35      C       2.3067095841     3.0275334075     0.3227643324
   36      C       3.4901829814     1.2691803912     0.0614660604
   37      H       1.8737466513     4.0080551076     0.1773142881
   38      N       3.2407856653     2.4791202304    -0.4789019677
   39      H       4.2023864612     0.5632268404    -0.3447495658
 ----------------------------------------------------------------
 Molecular Point Group                 C1    NOp =  1
 Largest Abelian Subgroup              C1    NOp =  1
 Nuclear Repulsion Energy =  2550.2130382961 hartrees
 There are       94 alpha and       90 beta electrons
 Requested basis set is STO-3G
 There are 65 shells and 144 basis functions

 Total QAlloc Memory Limit   2000 MB
 Mega-Array Size       188 MB
 MEM_STATIC part       192 MB
 A cutoff of  1.0D-12 yielded   1668 shell pairs
 There are      9465 function pairs (      9605 Cartesian)
 
 -------------------------------------------------------
 OpenMP Integral Computing Module                       
 Release: version 1.0, May 2013, Q-Chem Inc. Pittsburgh 
 -------------------------------------------------------
 Integral Job Info:
 Integral job number is                      11
 Integral operator is                         1
 short-range coefficients                     0
 long-range coefficients              100000000
 Omega coefficients                           0
 if combine SR and LR in K                    0
 Integral screening is                        0
 Integral computing path is                   2
 max size of driver memory is            800000
 size of driver memory is                593474
 size of scratch memory is             10861360
 max col of scratch BK array               1296
 max len of scratch array in speh3          155
 max len of scratch index in speh4           18
 max int batch size is                      520
 min int batch size is                       52
 fixed nKL is                                52
 max L of basis functions is                  2
 order of int derivative is                   0
 number of shells is                         65
 number of basis is                         145
 number of cartesian basis is               145
 number of contracted shell pairs          1668
 number of primitive shell pairs           8726
 maxK2 (contraction) of shell pair            9
 max number of K2 of shell pair               1
 max number of CS2 of shell pair            251
 max number of PS2 of shell pair           1080
 mem total for path MDJ                  555122
 -------------------------------------------------------
 Smallest overlap matrix eigenvalue = 1.67E-01

 Scale SEOQF with 1.000000e-01/1.000000e-01/1.000000e-01

 Standard Electronic Orientation quadrupole field applied
 Nucleus-field energy     =     0.0000000379 hartrees
 Guess from superposition of atomic densities
 Warning:  Energy on first SCF cycle will be non-variational
 SAD guess density has 186.000000 electrons

 -----------------------------------------------------------------------
  General SCF calculation program by
  Eric Jon Sundstrom, Paul Horn, Yuezhi Mao, Dmitri Zuev, Alec White,
  David Stuck, Shaama M.S., Shane Yost, Joonho Lee, David Small,
  Daniel Levine, Susi Lehtola, Hugh Burton, Evgeny Epifanovsky
 -----------------------------------------------------------------------
 Exchange:  B88      Correlation:  LYP
 Using SG-1 standard quadrature grid
 using 12 threads for integral computing
 -------------------------------------------------------
 OpenMP Integral computing Module                
 Release: version 1.0, May 2013, Q-Chem Inc. Pittsburgh 
 -------------------------------------------------------
 -------------------------------------------------------
 OpenMP BLAS3 based DFT computing Module                
 Release: version 1.0, May 2013, Q-Chem Inc. Pittsburgh 
 -------------------------------------------------------
 A unrestricted SCF calculation will be
 performed using DIIS, GDM
 SCF converges when RMS gradient is below 1.0e-08
 ---------------------------------------
  Cycle       Energy         DIIS error
 ---------------------------------------
    1   -2292.6645805332      4.95e-02  
    2   -2286.6551494586      1.67e-02  
    3   -2258.3201526147      3.72e-02  
    4   -2274.1797894723      2.19e-02  
    5   -2254.0219036647      3.04e-02  
    6   -2284.8102482543      1.74e-02  
    7   -2289.7998831851      5.98e-03  Done DIIS. Switching to GDM
 ---------------------------------------
  Cycle       Energy        RMS Gradient
 ---------------------------------------
    1   -2289.7998831851      6.70e-01   Descent step
    2   -2290.0508459390      5.51e-01   Descent step
    3   -2290.1338183852      4.05e-01   Descent step
    4   -2290.0035952568      5.37e-01  Line search: overstep
    5   -2290.2432989574      1.95e-01   Descent step
    6   -2290.3139320526      2.56e-01   Descent step
    7   -2289.9883346705      1.08e+00  Line search: overstep
    8   -2290.3406139067      1.65e-01   Descent step
    9   -2290.2514216822      3.95e-01  Line search: overstep
   10   -2290.3519378347      1.28e-01   Normal BFGS step
   11   -2290.3638076332      1.03e-01   Normal BFGS step
   12   -2290.3658340956      1.05e-01   Normal BFGS step
   13   -2290.3691213781      4.92e-02   Normal BFGS step
   14   -2290.3694229424      9.77e-02   Normal BFGS step
   15   -2290.3710567507      8.65e-02   Normal BFGS step
   16   -2290.3719371523      7.82e-02   Normal BFGS step
   17   -2290.3756135614      2.55e-02   Normal BFGS step
   18   -2290.3769763107      2.90e-02   Normal BFGS step
   19   -2290.3775475942      2.00e-02   Normal BFGS step
   20   -2290.3782536675      1.06e-02   Normal BFGS step
   21   -2290.3783896405      1.50e-02   Normal BFGS step
   22   -2290.3786540802      8.07e-03   Normal BFGS step
   23   -2290.3786742812      6.60e-03   Normal BFGS step
   24   -2290.3787416712      3.32e-03   Normal BFGS step
   25   -2290.3787545724      5.21e-03   Normal BFGS step
   26   -2290.3787849890      3.62e-03   Normal BFGS step
   27   -2290.3788001516      1.82e-03   Normal BFGS step
   28   -2290.3788051449      1.76e-03   Normal BFGS step
   29   -2290.3788072998      1.42e-03   Normal BFGS step
   30   -2290.3788086831      1.13e-03   Normal BFGS step
   31   -2290.3788063868      2.28e-03  Line search: overstep
   32   -2290.3788102670      5.24e-04   Normal BFGS step
   33   -2290.3788031419      1.60e-03  Line search: overstep
   34   -2290.3788112607      1.91e-04   Normal BFGS step
   35   -2290.3788111488      2.44e-04  Line search: overstep
   36   -2290.3788114705      1.75e-04   Normal BFGS step
   37   -2290.3788114232      3.03e-04  Line search: overstep
   38   -2290.3788115137      1.45e-04   Normal BFGS step
   39   -2290.3788115233      2.56e-04   Normal BFGS step
   40   -2290.3788115933      8.87e-05   Normal BFGS step
   41   -2290.3788116053      9.75e-05   Normal BFGS step
   42   -2290.3788116518      7.22e-05   Normal BFGS step
   43   -2290.3788116518      6.53e-05   Normal BFGS step
   44   -2290.3788116712      4.69e-05   Normal BFGS step
   45   -2290.3788116706      2.83e-05   Normal BFGS step
   46   -2290.3788116775      1.70e-05   Normal BFGS step
   47   -2290.3788116764      4.18e-05   Normal BFGS step
   48   -2290.3788116784      1.76e-05   Normal BFGS step
   49   -2290.3788116770      2.52e-05   Normal BFGS step
   50   -2290.3788116789      6.94e-06   Normal BFGS step
   51   -2290.3788116785      1.09e-05   Normal BFGS step
   52   -2290.3788116791      1.63e-06   Normal BFGS step
   53   -2290.3788116790      2.00e-06   Normal BFGS step
   54   -2290.3788116791      1.07e-06   Normal BFGS step
   55   -2290.3788116791      5.15e-06   Normal BFGS step
   56   -2290.3788116791      6.42e-07   Normal BFGS step
   57   -2290.3788116791      1.62e-06   Normal BFGS step
   58   -2290.3788116791      4.78e-07   Normal BFGS step
   59   -2290.3788116791      1.72e-06   Normal BFGS step
   60   -2290.3788116791      2.84e-07   Normal BFGS step
   61   -2290.3788116791      6.07e-07   Normal BFGS step
   62   -2290.3788116791      8.81e-08   Normal BFGS step
   63   -2290.3788116791      2.02e-07   Normal BFGS step
   64   -2290.3788116791      3.12e-08   Normal BFGS step
   65   -2290.3788116791      5.20e-08   Normal BFGS step
   66   -2290.3788116791      1.66e-08   Normal BFGS step
  /scratch/qcdevops/jenkins/workspace/build_qchem_linux_distrib/tags/qc511/qchem/libgscf/libgscf/opt/gdm.C::WARNING energy changes are now smaller than effective accuracy.
  /scratch/qcdevops/jenkins/workspace/build_qchem_linux_distrib/tags/qc511/qchem/libgscf/libgscf/opt/gdm.C::        calculation will continue, but THRESH should be increased
  /scratch/qcdevops/jenkins/workspace/build_qchem_linux_distrib/tags/qc511/qchem/libgscf/libgscf/opt/gdm.C::        or SCF_CONVERGENCE decreased. 
  /scratch/qcdevops/jenkins/workspace/build_qchem_linux_distrib/tags/qc511/qchem/libgscf/libgscf/opt/gdm.C::        effective_thresh = 4.46e-09
   67   -2290.3788116791      4.14e-08   Normal BFGS step
   68   -2290.3788116791      2.58e-08   Normal BFGS step
   69   -2290.3788116791      4.43e-08   Normal BFGS step
   70   -2290.3788116791      7.90e-09  Convergence criterion met
 ---------------------------------------
 SCF time:   CPU 743.60s  wall 62.00s 
<S^2> =          6.989422754
 SCF   energy in the final basis set =    -2290.3788116791
 Total energy in the final basis set =    -2290.3788116791
 
 --------------------------------------------------------------
 
                    Orbital Energies (a.u.)
 --------------------------------------------------------------
 
 Alpha MOs
 -- Occupied --
******* -29.656 -26.211 -26.207 -26.205 -19.007 -19.001 -14.300
-14.299 -14.267 -14.252 -14.149 -14.142 -14.118 -14.113 -10.135
-10.124 -10.113 -10.103 -10.102 -10.101 -10.098 -10.096 -10.078
-10.072 -10.069 -10.059  -3.875  -2.717  -2.715  -2.706  -1.393
 -1.269  -1.239  -1.212  -1.205  -1.112  -1.084  -1.063  -1.056
 -1.006  -0.962  -0.953  -0.937  -0.930  -0.915  -0.854  -0.823
 -0.819  -0.816  -0.806  -0.793  -0.790  -0.786  -0.778  -0.775
 -0.766  -0.718  -0.712  -0.686  -0.680  -0.676  -0.672  -0.668
 -0.661  -0.655  -0.647  -0.644  -0.638  -0.636  -0.634  -0.619
 -0.614  -0.609  -0.604  -0.577  -0.556  -0.554  -0.547  -0.542
 -0.530  -0.514  -0.501  -0.491  -0.479  -0.467  -0.458  -0.448
 -0.442  -0.426  -0.423  -0.408  -0.402  -0.399
 -- Virtual --
 -0.373  -0.361  -0.300  -0.248  -0.240  -0.228  -0.218  -0.196
 -0.184  -0.174  -0.168  -0.161  -0.152  -0.088  -0.062  -0.052
 -0.014   0.002   0.010   0.026   0.033   0.037   0.045   0.055
  0.062   0.063   0.069   0.069   0.083   0.098   0.105   0.116
  0.121   0.130   0.149   0.154   0.162   0.184   0.253   0.264
  0.268   0.269   0.276   0.280   0.281   0.286   0.366   0.366
  0.370   0.382
 
 Beta MOs
 -- Occupied --
******* -29.618 -26.178 -26.176 -26.175 -19.010 -19.009 -14.301
-14.298 -14.266 -14.252 -14.149 -14.141 -14.119 -14.113 -10.135
-10.124 -10.113 -10.103 -10.102 -10.101 -10.098 -10.097 -10.077
-10.072 -10.069 -10.059  -3.672  -2.521  -2.507  -2.505  -1.409
 -1.267  -1.238  -1.212  -1.206  -1.110  -1.083  -1.062  -1.059
 -1.020  -0.961  -0.953  -0.936  -0.933  -0.912  -0.853  -0.823
 -0.820  -0.815  -0.806  -0.794  -0.791  -0.786  -0.778  -0.777
 -0.766  -0.718  -0.711  -0.695  -0.678  -0.677  -0.672  -0.667
 -0.660  -0.654  -0.647  -0.645  -0.641  -0.639  -0.638  -0.618
 -0.613  -0.611  -0.608  -0.584  -0.523  -0.509  -0.494  -0.485
 -0.469  -0.461  -0.455  -0.449  -0.429  -0.423  -0.421  -0.407
 -0.406  -0.398
 -- Virtual --
 -0.392  -0.373  -0.356  -0.345  -0.337  -0.327  -0.291  -0.241
 -0.234  -0.220  -0.212  -0.202  -0.174  -0.172  -0.164  -0.160
 -0.144  -0.085  -0.062  -0.051  -0.017   0.001   0.011   0.027
  0.034   0.037   0.045   0.056   0.060   0.064   0.068   0.069
  0.081   0.099   0.105   0.116   0.124   0.132   0.150   0.154
  0.160   0.192   0.254   0.265   0.269   0.271   0.275   0.280
  0.282   0.285   0.367   0.368   0.371   0.380
 --------------------------------------------------------------
 
          Ground-State Mulliken Net Atomic Charges

     Atom                 Charge (a.u.)    Spin (a.u.)
  --------------------------------------------------------
      1 O                    -0.088542      -0.161474
      2 O                     0.092953      -0.533010
      3 Fe                    0.674482       4.747371
      4 N                    -0.206762      -0.001604
      5 C                     0.093863       0.012930
      6 N                    -0.248960       0.013044
      7 C                     0.003979       0.016167
      8 C                    -0.004938       0.016050
      9 H                     0.134264      -0.000631
     10 H                     0.143441      -0.000729
     11 H                     0.136874      -0.000537
     12 H                     0.277047      -0.000697
     13 H                     0.151111      -0.000531
     14 C                     0.021747       0.012233
     15 H                     0.272210      -0.003431
     16 N                    -0.246477       0.025951
     17 C                     0.018722       0.012870
     18 C                     0.069261       0.014370
     19 H                     0.160638      -0.000322
     20 N                    -0.171776       0.008841
     21 H                     0.134869      -0.000358
     22 H                     0.140557       0.002705
     23 C                    -0.028205      -0.008558
     24 H                     0.079258      -0.037941
     25 N                    -0.356435       0.008428
     26 C                     0.030610       0.032289
     27 C                     0.115145       0.020601
     28 H                     0.160655      -0.001405
     29 N                    -0.143130       0.026674
     30 H                     0.160206      -0.000379
     31 H                     0.130851       0.004747
     32 C                     0.014418      -0.117717
     33 H                     0.266395       0.000272
     34 N                    -0.258918      -0.006509
     35 C                     0.007307       0.017146
     36 C                     0.114974       0.012043
     37 H                     0.151108      -0.000295
     38 N                    -0.177995      -0.110496
     39 H                     0.175195      -0.018106
  --------------------------------------------------------
  Sum of atomic charges =     2.000000
  Sum of spin   charges =     4.000000

 -----------------------------------------------------------------
                    Cartesian Multipole Moments
 -----------------------------------------------------------------
    Charge (ESU x 10^10)
                 9.6064
    Dipole Moment (Debye)
         X      -1.2578      Y      -4.6749      Z       7.3777
       Tot       8.8243
    Quadrupole Moments (Debye-Ang)
        XX     -87.8629     XY      10.2881     YY    -112.2020
        XZ       7.8078     YZ      -6.2171     ZZ    -108.7541
    Octopole Moments (Debye-Ang^2)
       XXX     -31.0352    XXY     -33.9352    XYY      16.5402
       YYY     -32.1052    XXZ      37.5570    XYZ      -3.9367
       YYZ      37.2569    XZZ      -3.0824    YZZ     -24.5223
       ZZZ      33.7023
    Hexadecapole Moments (Debye-Ang^3)
      XXXX   -3069.2968   XXXY     -42.9077   XXYY   -1125.3496
      XYYY     103.1638   YYYY   -2474.1946   XXXZ      18.6257
      XXYZ       2.0573   XYYZ      47.2944   YYYZ     -34.2954
      XXZZ    -797.0474   XYZZ      25.4360   YYZZ    -642.0203
      XZZZ      -0.7278   YZZZ     -35.8600   ZZZZ   -1372.8050
 -----------------------------------------------------------------
 Calculating analytic gradient of the SCF energy
 Gradient of SCF Energy
            1           2           3           4           5           6
    1   0.2632961  -0.1489490  -0.0334206  -0.0780371  -0.0743249  -0.0201025
    2   0.0037395   0.0346391   0.0043853  -0.0024782   0.0013981  -0.0110057
    3  -0.0520900   0.0810756  -0.0858761   0.0510864   0.0115222  -0.0862425
            7           8           9          10          11          12
    1   0.1170069   0.0419452   0.0143692   0.0087258  -0.0183053  -0.0002632
    2  -0.0042904   0.0044691   0.0087447   0.0058173  -0.0012393   0.0064377
    3   0.0086539   0.0252783  -0.0133291   0.0177793  -0.0093865  -0.0126290
           13          14          15          16          17          18
    1   0.0022651   0.0762501  -0.0026008  -0.0399314   0.0403697  -0.0595711
    2   0.0197508   0.0610503   0.0068846   0.0905090   0.0287006  -0.0976837
    3  -0.0052873  -0.0063141  -0.0214297  -0.0320661  -0.0045625   0.0324173
           19          20          21          22          23          24
    1   0.0202170  -0.0125367  -0.0133572  -0.0026550   0.1082908  -0.0979180
    2  -0.0052595  -0.0906550  -0.0140402   0.0211061   0.0905873   0.0408253
    3   0.0041214   0.0294846  -0.0185775   0.0028686  -0.0135976   0.1041669
           25          26          27          28          29          30
    1  -0.0321369   0.0338310  -0.0131220   0.0210256  -0.0142677  -0.0184483
    2  -0.0070599   0.0553314  -0.1069726   0.0014437  -0.0830280  -0.0130455
    3  -0.0307632  -0.0169003   0.0450563   0.0046051   0.0320496   0.0022780
           31          32          33          34          35          36
    1   0.0064222   0.0781372  -0.0056621  -0.0145089   0.0242585  -0.0804858
    2   0.0006503  -0.0364364   0.0036906   0.0612074  -0.0380743   0.0176078
    3  -0.0201304  -0.0509513  -0.0110147  -0.0591403  -0.0051002   0.0340987
           37          38          39
    1   0.0060632  -0.0366917  -0.0451773
    2  -0.0191801  -0.0321896  -0.0063379
    3   0.0046483   0.0786506  -0.0144527
 Max gradient component =       2.633E-01
 RMS gradient           =       5.150E-02
 Gradient time:  CPU 28.67 s  wall 2.50 s
 Geometry Optimization Parameters
   NAtoms,    NIC,     NZ,  NCons,   NDum,   NFix, NCnnct, MaxDiis
       39     424       0       0       0       0       0       0


** GEOMETRY OPTIMIZATION IN DELOCALIZED INTERNAL COORDINATES **
   Searching for a Minimum

   Optimization Cycle:   1

                       Coordinates (Angstroms)
     ATOM                X               Y               Z
      1  O         1.6869506448   -0.2525358769   -0.5462396304
      2  O         2.8592104237   -0.2949721590   -0.9349178840
      3  Fe       -0.1821583089   -0.1936136151    0.0681862986
      4  N         1.4801477127   -3.0031865960   -0.9109940609
      5  C         1.8046747655   -2.7874854428    0.3797406948
      6  N         0.7324108177   -2.8425129413    1.1897932192
      7  C        -0.3145699879   -3.1017514052    0.3919103813
      8  C         0.1473456593   -3.2015126894   -0.9014222610
      9  H        -1.3377894438   -3.2095965183    0.7268865906
     10  H        -0.4480887190   -3.4037574650   -1.7814723544
     11  H         2.8119773365   -2.5925949817    0.7230942869
     12  H         0.7178292621   -2.7104188047    2.2251421394
     13  H        -3.5590144901   -1.3164699411    1.9468841404
     14  C        -3.0968909937   -0.3531299583    1.7768099536
     15  H        -1.0609752449   -0.7340102860    2.3111153304
     16  N        -1.7985544235   -0.0780145044    1.9731849213
     17  C        -3.7142695303    0.7931750026    1.3287073501
     18  C        -1.6451339349    1.2172281963    1.6447404403
     19  H        -4.7606563583    0.9022041689    1.0776187835
     20  N        -2.8023481438    1.7819214288    1.2447858744
     21  H        -0.7027898185    1.7460563845    1.6946729191
     22  H        -2.2228516131   -1.3743815132   -1.2518186241
     23  C        -2.0292012305   -0.3678843714   -1.5963720996
     24  H         0.0793895476   -0.1782577670   -1.2795913419
     25  N        -0.8271102959    0.2284318420   -1.5996275161
     26  C        -2.9509222248    0.5223919897   -2.0989277627
     27  C        -1.0325108821    1.4599410707   -2.0999412349
     28  H        -4.0106168994    0.3460727499   -2.2244556708
     29  N        -2.3257203343    1.6728918838   -2.4162253593
     30  H        -0.2523720935    2.1964474342   -2.2339452811
     31  H         1.2926021922    2.2916013590    2.1347963389
     32  C         2.0048581041    2.1434153067    1.3342026608
     33  H         2.7599116373    0.1865814055    1.7598142357
     34  N         2.7521754613    1.0422988167    1.1627047527
     35  C         2.3067095841    3.0275334075    0.3227643324
     36  C         3.4901829814    1.2691803912    0.0614660604
     37  H         1.8737466513    4.0080551076    0.1773142881
     38  N         3.2407856653    2.4791202304   -0.4789019677
     39  H         4.2023864612    0.5632268404   -0.3447495658
   Point Group: c1    Number of degrees of freedom:   111


   Energy is  -2290.378811679


 Attempting to Generate Delocalized Internal Coordinates

111 Hessian modes will be used to form the next step
  Hessian Eigenvalues:
     0.002260    0.002881    0.005604    0.008836    0.009518    0.011552
     0.013196    0.014046    0.015937    0.017180    0.017772    0.018873
     0.019347    0.020129    0.020453    0.020976    0.021764    0.022358
     0.022571    0.022809    0.023098    0.023459    0.023776    0.024124
     0.024532    0.024723    0.024766    0.024840    0.025041    0.026191
     0.027402    0.029599    0.030459    0.032045    0.036171    0.037331
     0.043137    0.045950    0.053290    0.061698    0.067870    0.072916
     0.077231    0.081072    0.082513    0.093080    0.096307    0.100737
     0.105256    0.107645    0.116608    0.123429    0.126708    0.136757
     0.141062    0.147464    0.152728    0.157525    0.160000    0.160000
     0.160000    0.160000    0.160000    0.160000    0.160000    0.160000
     0.164811    0.173304    0.177200    0.183587    0.211975    0.218627
     0.221079    0.227989    0.277993    0.292775    0.299751    0.305779
     0.322932    0.338751    0.341335    0.348037    0.349741    0.355344
     0.357658    0.357919    0.358017    0.358050    0.358485    0.393022
     0.403323    0.407934    0.408777    0.418516    0.435588    0.438373
     0.466242    0.467026    0.490114    0.509484    0.524177    0.526966
     0.528697    0.529881    0.540355    0.551838    0.555378    0.557959
     0.560042    0.562991    0.762363

 Minimum Search - Taking Simple RFO Step
 Searching for Lamda that Minimizes Along All modes
 Value Taken    Lamda =  -0.30146976
 Calculated Step too Large.  Step scaled by  0.448755
 Step Taken.  Stepsize is  0.300000

                             Maximum     Tolerance    Cnvgd?
         Gradient           0.120745      0.000300      NO
         Displacement       0.109167      0.001200      NO
         Energy change     *********      0.000001      NO


 New Cartesian Coordinates Obtained by Inverse Iteration

 Displacement from previous Coordinates is:  1.863116
 ----------------------------------------------------------------
             Standard Nuclear Orientation (Angstroms)
    I     Atom           X                Y                Z
 ----------------------------------------------------------------
    1      O       1.6775428123    -0.2697891878    -0.5805072994
    2      O       2.9011754098    -0.3036222364    -0.9366076566
    3      Fe     -0.1893436365    -0.2209202472    -0.0463338318
    4      N       1.5181648988    -3.0241625079    -0.9379925606
    5      C       1.8029895145    -2.7974382015     0.3703191040
    6      N       0.6898315699    -2.8608612408     1.1658505675
    7      C      -0.3581136832    -3.1321140961     0.3236395973
    8      C       0.1635095287    -3.2364009977    -0.9673438272
    9      H      -1.3951104502    -3.2487693031     0.6230145860
   10      H      -0.4019668066    -3.4520535366    -1.8724972207
   11      H       2.8033744366    -2.5887899533     0.7441083656
   12      H       0.6680012875    -2.7290120684     2.2106246525
   13      H      -3.6355089054    -1.3050293185     2.1988953803
   14      C      -3.1709593937    -0.3374674841     2.0153334202
   15      H      -1.0895129046    -0.7399516567     2.4461488195
   16      N      -1.8395646388    -0.0700905781     2.1523758938
   17      C      -3.7892127424     0.8408282417     1.6071287271
   18      C      -1.6739592407     1.2631207312     1.8251028602
   19      H      -4.8517377672     0.9715278423     1.4064779922
   20      N      -2.8575909483     1.8434223947     1.4830699633
   21      H      -0.7191400310     1.7917516149     1.8396092063
   22      H      -2.2073241130    -1.4361609124    -1.4154167907
   23      C      -2.0038883174    -0.4276135318    -1.7705095399
   24      H       0.1385003773    -0.2194430029    -1.4129401296
   25      N      -0.7798563972     0.1907942070    -1.7561803296
   26      C      -2.9142383460     0.4670382285    -2.3119363619
   27      C      -0.9738335489     1.4465782167    -2.2895736383
   28      H      -3.9783576836     0.2909457463    -2.4641016687
   29      N      -2.2709950095     1.6404310483    -2.6385265258
   30      H      -0.1858309136     2.1879102755    -2.4162205982
   31      H       1.2970789667     2.3433396705     2.1911606630
   32      C       2.0043593603     2.1952732769     1.3726042815
   33      H       2.7898532745     0.2330452913     1.8212275261
   34      N       2.7733467402     1.0795078733     1.2059022134
   35      C       2.3120160337     3.0692081642     0.3261512087
   36      C       3.5245248221     1.2892124929     0.0786254547
   37      H       1.8774971365     4.0543126792     0.1624803474
   38      N       3.2667796963     2.5075640947    -0.4845832225
   39      H       4.2462495487     0.5755661510    -0.3118462509
 ----------------------------------------------------------------
 Molecular Point Group                 C1    NOp =  1
 Largest Abelian Subgroup              C1    NOp =  1
 Nuclear Repulsion Energy =  2491.6641985085 hartrees
 There are       94 alpha and       90 beta electrons
 Applying Cartesian multipole field
    Component          Value
    ---------          -----
     (2,0,0)        1.00000E-11
     (0,2,0)        2.00000E-11
     (0,0,2)       -3.00000E-11
 Nucleus-field energy     =     0.0000000331 hartrees
 Requested basis set is STO-3G
 There are 65 shells and 144 basis functions
 A cutoff of  1.0D-12 yielded   1648 shell pairs
 There are      9396 function pairs (      9535 Cartesian)
 Smallest overlap matrix eigenvalue = 1.75E-01
 Guess MOs from SCF MO coefficient file

 -----------------------------------------------------------------------
  General SCF calculation program by
  Eric Jon Sundstrom, Paul Horn, Yuezhi Mao, Dmitri Zuev, Alec White,
  David Stuck, Shaama M.S., Shane Yost, Joonho Lee, David Small,
  Daniel Levine, Susi Lehtola, Hugh Burton, Evgeny Epifanovsky
 -----------------------------------------------------------------------
 Exchange:  B88      Correlation:  LYP
 Using SG-1 standard quadrature grid
 using 12 threads for integral computing
 -------------------------------------------------------
 OpenMP Integral computing Module                
 Release: version 1.0, May 2013, Q-Chem Inc. Pittsburgh 
 -------------------------------------------------------
 -------------------------------------------------------
 OpenMP BLAS3 based DFT computing Module                
 Release: version 1.0, May 2013, Q-Chem Inc. Pittsburgh 
 -------------------------------------------------------
 A unrestricted SCF calculation will be
 performed using DIIS, GDM
 SCF converges when RMS gradient is below 1.0e-08
 ---------------------------------------
  Cycle       Energy         DIIS error
 ---------------------------------------
    1   -2290.4740465570      8.05e-04  
    2   -2290.4547358929      1.35e-03  Done DIIS. Switching to GDM
 ---------------------------------------
  Cycle       Energy        RMS Gradient
 ---------------------------------------
    1   -2290.4547358929      3.31e-01   Descent step
    2   -2290.1218767998      9.12e-01  Line search: overstep
    3   -2290.4860055709      1.05e-01   Normal BFGS step
    4   -2290.4798181760      7.36e-02  Line search: overstep
    5   -2290.4883237161      4.86e-02   Normal BFGS step
    6   -2290.4874364345      4.62e-02  Line search: overstep
    7   -2290.4892934538      1.63e-02   Normal BFGS step
    8   -2290.4885759395      4.26e-02  Line search: overstep
    9   -2290.4895786283      1.02e-02   Normal BFGS step
   10   -2290.4897078625      4.58e-03   Normal BFGS step
   11   -2290.4897490636      4.04e-03   Normal BFGS step
   12   -2290.4898063802      2.55e-03   Normal BFGS step
   13   -2290.4897984605      2.24e-03  Line search: overstep
   14   -2290.4898174935      9.22e-04   Normal BFGS step
   15   -2290.4898188881      8.95e-04   Normal BFGS step
   16   -2290.4898222852      5.69e-04   Normal BFGS step
   17   -2290.4898226144      6.36e-04   Normal BFGS step
   18   -2290.4898236145      2.67e-04   Normal BFGS step
   19   -2290.4898235628      2.10e-04   Normal BFGS step
   20   -2290.4898238753      9.19e-05   Normal BFGS step
   21   -2290.4898238387      1.83e-04  Line search: overstep
   22   -2290.4898239294      7.01e-05   Normal BFGS step
   23   -2290.4898239397      4.12e-05   Normal BFGS step
   24   -2290.4898239518      3.01e-05   Normal BFGS step
   25   -2290.4898239551      2.33e-05   Normal BFGS step
   26   -2290.4898239583      1.46e-05   Normal BFGS step
   27   -2290.4898239589      2.19e-05   Normal BFGS step
   28   -2290.4898239580      7.36e-05   Normal BFGS step
   29   -2290.4898239570      4.73e-05   Normal BFGS step
   30   -2290.4898239584      1.97e-05   Normal BFGS step
   31   -2290.4898239588      2.61e-05   Normal BFGS step
   32   -2290.4898239598      3.04e-05   Normal BFGS step
   33   -2290.4898239581      5.64e-05   Normal BFGS step
   34   -2290.4898239603      6.26e-06   Normal BFGS step
   35   -2290.4898239600      1.19e-05   Normal BFGS step
   36   -2290.4898239605      3.15e-06   Normal BFGS step
   37   -2290.4898239605      4.97e-06   Normal BFGS step
   38   -2290.4898239605      1.38e-06   Normal BFGS step
   39   -2290.4898239605      1.99e-06   Normal BFGS step
   40   -2290.4898239606      1.08e-06   Normal BFGS step
   41   -2290.4898239606      1.32e-06   Normal BFGS step
   42   -2290.4898239606      5.14e-07   Normal BFGS step
   43   -2290.4898239606      5.71e-07   Normal BFGS step
   44   -2290.4898239606      2.14e-07   Normal BFGS step
   45   -2290.4898239606      3.13e-07   Normal BFGS step
   46   -2290.4898239606      6.14e-08   Normal BFGS step
   47   -2290.4898239606      1.86e-07   Normal BFGS step
   48   -2290.4898239606      2.19e-07   Normal BFGS step
   49   -2290.4898239606      9.41e-07   Normal BFGS step
   50   -2290.4898239606      1.54e-08   Normal BFGS step
   51   -2290.4898239606      3.15e-08   Normal BFGS step
   52   -2290.4898239606      5.17e-09  Convergence criterion met
 ---------------------------------------
 SCF time:   CPU 500.93s  wall 42.00s 
<S^2> =          7.098840261
 SCF   energy in the final basis set =    -2290.4898239606
 Total energy in the final basis set =    -2290.4898239606
 
 --------------------------------------------------------------
 
                    Orbital Energies (a.u.)
 --------------------------------------------------------------
 
 Alpha MOs
 -- Occupied --
******* -29.663 -26.217 -26.215 -26.212 -18.991 -18.989 -14.289
-14.272 -14.256 -14.242 -14.147 -14.123 -14.112 -14.111 -10.121
-10.118 -10.108 -10.100 -10.099 -10.099 -10.091 -10.084 -10.075
-10.067 -10.058 -10.053  -3.877  -2.718  -2.718  -2.708  -1.353
 -1.245  -1.196  -1.191  -1.181  -1.096  -1.054  -1.050  -1.040
 -1.004  -0.950  -0.928  -0.927  -0.917  -0.897  -0.823  -0.811
 -0.808  -0.805  -0.784  -0.781  -0.777  -0.773  -0.767  -0.760
 -0.758  -0.705  -0.697  -0.670  -0.665  -0.660  -0.653  -0.649
 -0.648  -0.642  -0.638  -0.629  -0.629  -0.627  -0.614  -0.609
 -0.604  -0.600  -0.593  -0.570  -0.554  -0.552  -0.545  -0.540
 -0.528  -0.499  -0.488  -0.481  -0.468  -0.457  -0.452  -0.445
 -0.435  -0.424  -0.410  -0.408  -0.400  -0.398
 -- Virtual --
 -0.373  -0.361  -0.295  -0.248  -0.241  -0.229  -0.222  -0.198
 -0.186  -0.174  -0.170  -0.165  -0.156  -0.085  -0.058  -0.052
 -0.037  -0.010  -0.007   0.006   0.019   0.026   0.041   0.043
  0.048   0.052   0.058   0.061   0.070   0.087   0.101   0.104
  0.108   0.115   0.136   0.147   0.154   0.164   0.241   0.245
  0.251   0.256   0.259   0.260   0.262   0.264   0.344   0.344
  0.356   0.360
 
 Beta MOs
 -- Occupied --
******* -29.624 -26.185 -26.183 -26.182 -18.998 -18.993 -14.289
-14.272 -14.256 -14.242 -14.147 -14.123 -14.114 -14.111 -10.121
-10.118 -10.108 -10.099 -10.099 -10.099 -10.092 -10.084 -10.074
-10.066 -10.057 -10.053  -3.672  -2.519  -2.506  -2.505  -1.373
 -1.243  -1.195  -1.190  -1.183  -1.094  -1.053  -1.050  -1.043
 -1.022  -0.950  -0.927  -0.926  -0.920  -0.894  -0.822  -0.811
 -0.809  -0.805  -0.783  -0.781  -0.778  -0.772  -0.768  -0.760
 -0.757  -0.710  -0.691  -0.674  -0.666  -0.663  -0.652  -0.650
 -0.646  -0.641  -0.637  -0.632  -0.629  -0.629  -0.624  -0.609
 -0.603  -0.600  -0.599  -0.576  -0.513  -0.487  -0.483  -0.475
 -0.459  -0.456  -0.447  -0.443  -0.430  -0.423  -0.409  -0.408
 -0.404  -0.397
 -- Virtual --
 -0.388  -0.371  -0.350  -0.344  -0.336  -0.330  -0.284  -0.243
 -0.233  -0.222  -0.218  -0.206  -0.178  -0.172  -0.165  -0.163
 -0.148  -0.084  -0.059  -0.052  -0.040  -0.009  -0.006   0.007
  0.020   0.026   0.042   0.043   0.049   0.050   0.058   0.061
  0.068   0.088   0.101   0.104   0.111   0.118   0.137   0.146
  0.154   0.172   0.242   0.246   0.253   0.256   0.259   0.260
  0.261   0.263   0.345   0.345   0.356   0.359
 --------------------------------------------------------------
 
          Ground-State Mulliken Net Atomic Charges

     Atom                 Charge (a.u.)    Spin (a.u.)
  --------------------------------------------------------
      1 O                    -0.104598      -0.198768
      2 O                     0.094413      -0.622055
      3 Fe                    0.625968       4.865596
      4 N                    -0.201777      -0.005734
      5 C                     0.091143       0.012625
      6 N                    -0.241253       0.015927
      7 C                     0.005108       0.020364
      8 C                    -0.005394       0.020169
      9 H                     0.137928      -0.000780
     10 H                     0.142646      -0.000959
     11 H                     0.136446      -0.000516
     12 H                     0.272487      -0.000833
     13 H                     0.148301      -0.000555
     14 C                     0.022165       0.011968
     15 H                     0.262406      -0.003225
     16 N                    -0.228864       0.034442
     17 C                     0.019066       0.032349
     18 C                     0.087005       0.040268
     19 H                     0.155890      -0.001287
     20 N                    -0.173410      -0.004335
     21 H                     0.130038      -0.001556
     22 H                     0.143685       0.002579
     23 C                    -0.024589      -0.008828
     24 H                     0.086692      -0.037305
     25 N                    -0.343429       0.006316
     26 C                     0.032321       0.034548
     27 C                     0.113939       0.020355
     28 H                     0.161711      -0.001434
     29 N                    -0.136801       0.021775
     30 H                     0.162821      -0.000407
     31 H                     0.132017       0.005739
     32 C                     0.019714      -0.136700
     33 H                     0.263313       0.000363
     34 N                    -0.252439      -0.006435
     35 C                     0.006544       0.011597
     36 C                     0.111286      -0.002004
     37 H                     0.149181      -0.000037
     38 N                    -0.173232      -0.107891
     39 H                     0.171555      -0.015338
  --------------------------------------------------------
  Sum of atomic charges =     2.000000
  Sum of spin   charges =     4.000000

 -----------------------------------------------------------------
                    Cartesian Multipole Moments
 -----------------------------------------------------------------
    Charge (ESU x 10^10)
                 9.6064
    Dipole Moment (Debye)
         X      -1.2418      Y      -4.7805      Z       6.7323
       Tot       8.3498
    Quadrupole Moments (Debye-Ang)
        XX     -86.7677     XY      11.1935     YY    -110.7114
        XZ       7.8655     YZ      -5.8234     ZZ    -105.4592
    Octopole Moments (Debye-Ang^2)
       XXX     -33.3442    XXY     -33.9240    XYY      15.5871
       YYY     -31.7601    XXZ      43.2202    XYZ      -2.9952
       YYZ      36.8021    XZZ      -9.1821    YZZ     -24.6938
       ZZZ      39.6105
    Hexadecapole Moments (Debye-Ang^3)
      XXXX   -3085.7162   XXXY     -49.0147   XXYY   -1144.4393
      XYYY     103.4456   YYYY   -2515.1173   XXXZ      36.3834
      XXYZ      -7.2285   XYYZ      62.4831   YYYZ     -61.1128
      XXZZ    -819.3327   XYZZ      31.5822   YYZZ    -690.2809
      XZZZ      30.7337   YZZZ     -61.1769   ZZZZ   -1614.4709
 -----------------------------------------------------------------
 Calculating analytic gradient of the SCF energy
 Gradient of SCF Energy
            1           2           3           4           5           6
    1   0.1910639  -0.0864329  -0.0256809  -0.0558808  -0.0474593  -0.0147004
    2   0.0041081   0.0237847   0.0020242  -0.0008622   0.0046647  -0.0080226
    3  -0.0292595   0.0507509  -0.0871212   0.0372229   0.0047462  -0.0585269
            7           8           9          10          11          12
    1   0.0754121   0.0283422   0.0122492   0.0048669  -0.0133260   0.0021304
    2  -0.0085332  -0.0006694   0.0078378   0.0048685  -0.0005210   0.0070000
    3   0.0112581   0.0109055  -0.0125891   0.0132929  -0.0085189  -0.0044885
           13          14          15          16          17          18
    1   0.0002205   0.0454920  -0.0013602  -0.0240495   0.0218213  -0.0363339
    2   0.0144894   0.0357324   0.0041387   0.0603001   0.0181165  -0.0578271
    3  -0.0040636  -0.0070270  -0.0141515  -0.0169623  -0.0046432   0.0289994
           19          20          21          22          23          24
    1   0.0141231  -0.0049985  -0.0077942  -0.0042319   0.0873369  -0.0853498
    2  -0.0050349  -0.0618564  -0.0063254   0.0154255   0.0609400   0.0353835
    3   0.0022702   0.0212693  -0.0146387   0.0033562  -0.0060435   0.1006173
           25          26          27          28          29          30
    1  -0.0224734   0.0157320  -0.0002793   0.0149124  -0.0118525  -0.0141350
    2  -0.0135946   0.0392920  -0.0713106  -0.0000797  -0.0567426  -0.0083930
    3  -0.0308664  -0.0148031   0.0348134   0.0042057   0.0229206   0.0010442
           31          32          33          34          35          36
    1   0.0023043   0.0507631  -0.0051187  -0.0084856   0.0130184  -0.0533856
    2   0.0011393  -0.0263704   0.0023792   0.0405770  -0.0186234   0.0104583
    3  -0.0127212  -0.0296135  -0.0092654  -0.0406331  -0.0055179   0.0198921
           37          38          39
    1   0.0036658  -0.0198363  -0.0402897
    2  -0.0135964  -0.0258002  -0.0084971
    3   0.0041759   0.0552906  -0.0155769
 Max gradient component =       1.911E-01
 RMS gradient           =       3.659E-02
 Gradient time:  CPU 27.47 s  wall 2.36 s
 Geometry Optimization Parameters
   NAtoms,    NIC,     NZ,  NCons,   NDum,   NFix, NCnnct, MaxDiis
       39     424       0       0       0       0       0       0

 Cartesian Hessian Update
 Hessian Updated using BFGS Update


** GEOMETRY OPTIMIZATION IN DELOCALIZED INTERNAL COORDINATES **
   Searching for a Minimum

   Optimization Cycle:   2

                       Coordinates (Angstroms)
     ATOM                X               Y               Z
      1  O         1.6775428123   -0.2697891878   -0.5805072994
      2  O         2.9011754098   -0.3036222364   -0.9366076566
      3  Fe       -0.1893436365   -0.2209202472   -0.0463338318
      4  N         1.5181648988   -3.0241625079   -0.9379925606
      5  C         1.8029895145   -2.7974382015    0.3703191040
      6  N         0.6898315699   -2.8608612408    1.1658505675
      7  C        -0.3581136832   -3.1321140961    0.3236395973
      8  C         0.1635095287   -3.2364009977   -0.9673438272
      9  H        -1.3951104502   -3.2487693031    0.6230145860
     10  H        -0.4019668066   -3.4520535366   -1.8724972207
     11  H         2.8033744366   -2.5887899533    0.7441083656
     12  H         0.6680012875   -2.7290120684    2.2106246525
     13  H        -3.6355089054   -1.3050293185    2.1988953803
     14  C        -3.1709593937   -0.3374674841    2.0153334202
     15  H        -1.0895129046   -0.7399516567    2.4461488195
     16  N        -1.8395646388   -0.0700905781    2.1523758938
     17  C        -3.7892127424    0.8408282417    1.6071287271
     18  C        -1.6739592407    1.2631207312    1.8251028602
     19  H        -4.8517377672    0.9715278423    1.4064779922
     20  N        -2.8575909483    1.8434223947    1.4830699633
     21  H        -0.7191400310    1.7917516149    1.8396092063
     22  H        -2.2073241130   -1.4361609124   -1.4154167907
     23  C        -2.0038883174   -0.4276135318   -1.7705095399
     24  H         0.1385003773   -0.2194430029   -1.4129401296
     25  N        -0.7798563972    0.1907942070   -1.7561803296
     26  C        -2.9142383460    0.4670382285   -2.3119363619
     27  C        -0.9738335489    1.4465782167   -2.2895736383
     28  H        -3.9783576836    0.2909457463   -2.4641016687
     29  N        -2.2709950095    1.6404310483   -2.6385265258
     30  H        -0.1858309136    2.1879102755   -2.4162205982
     31  H         1.2970789667    2.3433396705    2.1911606630
     32  C         2.0043593603    2.1952732769    1.3726042815
     33  H         2.7898532745    0.2330452913    1.8212275261
     34  N         2.7733467402    1.0795078733    1.2059022134
     35  C         2.3120160337    3.0692081642    0.3261512087
     36  C         3.5245248221    1.2892124929    0.0786254547
     37  H         1.8774971365    4.0543126792    0.1624803474
     38  N         3.2667796963    2.5075640947   -0.4845832225
     39  H         4.2462495487    0.5755661510   -0.3118462509
   Point Group: c1    Number of degrees of freedom:   111


   Energy is  -2290.489823961

 Hessian Updated using BFGS Update

111 Hessian modes will be used to form the next step
  Hessian Eigenvalues:
     0.002260    0.002882    0.005607    0.008896    0.009518    0.011551
     0.013229    0.014088    0.016054    0.017234    0.017781    0.019054
     0.019347    0.020129    0.020464    0.020956    0.021750    0.022388
     0.022574    0.022809    0.023102    0.023460    0.023779    0.024124
     0.024532    0.024722    0.024800    0.024843    0.025042    0.026188
     0.027524    0.029632    0.030468    0.032304    0.036173    0.037373
     0.043144    0.045946    0.053318    0.062917    0.067962    0.072964
     0.076680    0.081075    0.083953    0.093047    0.096081    0.100898
     0.103522    0.107615    0.116421    0.123483    0.127477    0.136304
     0.140613    0.146423    0.155052    0.156972    0.159138    0.160000
     0.160000    0.160000    0.160000    0.160000    0.160000    0.160785
     0.167599    0.173266    0.179931    0.183480    0.210905    0.219573
     0.226169    0.227802    0.277998    0.292950    0.302142    0.303902
     0.322666    0.339912    0.341280    0.347547    0.352338    0.355339
     0.357715    0.357953    0.358035    0.358343    0.359511    0.393747
     0.403866    0.407911    0.409441    0.418126    0.435530    0.438372
     0.466815    0.469701    0.490381    0.509139    0.524808    0.526976
     0.528509    0.531885    0.542878    0.552001    0.553848    0.557754
     0.561700    0.670909    0.756313

 Minimum Search - Taking Simple RFO Step
 Searching for Lamda that Minimizes Along All modes
 Value Taken    Lamda =  -0.17967218
 Calculated Step too Large.  Step scaled by  0.459079
 Step Taken.  Stepsize is  0.300000

                             Maximum     Tolerance    Cnvgd?
         Gradient           0.087210      0.000300      NO
         Displacement       0.092992      0.001200      NO
         Energy change     -0.111012      0.000001      NO


 New Cartesian Coordinates Obtained by Inverse Iteration

 Displacement from previous Coordinates is:  1.142044
 ----------------------------------------------------------------
             Standard Nuclear Orientation (Angstroms)
    I     Atom           X                Y                Z
 ----------------------------------------------------------------
    1      O       1.6528434289    -0.2735603874    -0.5511047826
    2      O       2.9067297611    -0.3047809101    -0.9379868983
    3      Fe     -0.1671360898    -0.2238437066     0.0083231056
    4      N       1.4991243487    -3.0236873631    -0.9400993742
    5      C       1.8109272736    -2.8110260657     0.3756823410
    6      N       0.6968973188    -2.8828310586     1.2038747138
    7      C      -0.3896520370    -3.1429980886     0.3693519198
    8      C       0.1203271136    -3.2330552677    -0.9418420637
    9      H      -1.4239491070    -3.2631289845     0.6942724303
   10      H      -0.4678500044    -3.4392847728    -1.8439917139
   11      H       2.8230698730    -2.6027817773     0.7341331305
   12      H       0.6799263761    -2.7612283846     2.2514721073
   13      H      -3.6281978441    -1.3693545536     2.0976117077
   14      C      -3.1624181408    -0.3976338383     1.8996987758
   15      H      -1.0802648293    -0.7704720276     2.4367272156
   16      N      -1.8243629267    -0.1161296464     2.0883763809
   17      C      -3.7608643589     0.7815160151     1.4212879585
   18      C      -1.6418199851     1.2349927822     1.7197867129
   19      H      -4.8197052981     0.9087895366     1.1667393996
   20      N      -2.8200385350     1.8054851592     1.3009964551
   21      H      -0.6862289699     1.7721408380     1.7736481876
   22      H      -2.2596397066    -1.4256546166    -1.3116731300
   23      C      -2.0568939826    -0.4115400005    -1.6695060840
   24      H       0.1510870064    -0.2182301531    -1.4146064684
   25      N      -0.8019521880     0.2135442551    -1.7049516535
   26      C      -2.9729622687     0.5083169949    -2.1746145496
   27      C      -1.0073461942     1.5024897742    -2.2376566363
   28      H      -4.0522535925     0.3514481214    -2.2906834270
   29      N      -2.3227281437     1.7023634178    -2.5319292148
   30      H      -0.2084358264     2.2381770612    -2.3943594497
   31      H       1.3077653639     2.3701869479     2.1991294765
   32      C       2.0262862096     2.2235414080     1.3845376374
   33      H       2.8440319700     0.2562001465     1.8574468532
   34      N       2.8191036001     1.0980284386     1.2295676359
   35      C       2.3347581713     3.0933242474     0.3152223503
   36      C       3.5695856172     1.3014528091     0.0728472362
   37      H       1.8893947545     4.0784645172     0.1345109326
   38      N       3.2977267523     2.5277367076    -0.5118938242
   39      H       4.2938650268     0.5847106051    -0.3216120159
 ----------------------------------------------------------------
 Molecular Point Group                 C1    NOp =  1
 Largest Abelian Subgroup              C1    NOp =  1
 Nuclear Repulsion Energy =  2492.2636180261 hartrees
 There are       94 alpha and       90 beta electrons
 Applying Cartesian multipole field
    Component          Value
    ---------          -----
     (2,0,0)        1.00000E-11
     (0,2,0)        2.00000E-11
     (0,0,2)       -3.00000E-11
 Nucleus-field energy     =     0.0000000368 hartrees
 Requested basis set is STO-3G
 There are 65 shells and 144 basis functions
 A cutoff of  1.0D-12 yielded   1646 shell pairs
 There are      9391 function pairs (      9530 Cartesian)
 Smallest overlap matrix eigenvalue = 1.83E-01
 Guess MOs from SCF MO coefficient file

 -----------------------------------------------------------------------
  General SCF calculation program by
  Eric Jon Sundstrom, Paul Horn, Yuezhi Mao, Dmitri Zuev, Alec White,
  David Stuck, Shaama M.S., Shane Yost, Joonho Lee, David Small,
  Daniel Levine, Susi Lehtola, Hugh Burton, Evgeny Epifanovsky
 -----------------------------------------------------------------------
 Exchange:  B88      Correlation:  LYP
 Using SG-1 standard quadrature grid
 using 12 threads for integral computing
 -------------------------------------------------------
 OpenMP Integral computing Module                
 Release: version 1.0, May 2013, Q-Chem Inc. Pittsburgh 
 -------------------------------------------------------
 -------------------------------------------------------
 OpenMP BLAS3 based DFT computing Module                
 Release: version 1.0, May 2013, Q-Chem Inc. Pittsburgh 
 -------------------------------------------------------
 A unrestricted SCF calculation will be
 performed using DIIS, GDM
 SCF converges when RMS gradient is below 1.0e-08
 ---------------------------------------
  Cycle       Energy         DIIS error
 ---------------------------------------
    1   -2290.5460055175      6.95e-04  
    2   -2290.5425020025      9.50e-04  Done DIIS. Switching to GDM
 ---------------------------------------
  Cycle       Energy        RMS Gradient
 ---------------------------------------
    1   -2290.5425020025      2.60e-01   Descent step
    2   -2290.0688904356      1.35e+00  Line search: overstep
    3   -2290.5577151000      7.25e-02   Normal BFGS step
    4   -2290.5543730497      4.29e-02  Line search: overstep
    5   -2290.5591606880      3.85e-02   Normal BFGS step
    6   -2290.5589445253      2.27e-02  Line search: overstep
    7   -2290.5595428215      1.32e-02   Normal BFGS step
    8   -2290.5592879220      2.65e-02  Line search: overstep
    9   -2290.5596483895      3.24e-03   Normal BFGS step
   10   -2290.5596364831      5.13e-03  Line search: overstep
   11   -2290.5596677064      3.18e-03   Normal BFGS step
   12   -2290.5596815054      1.28e-03   Normal BFGS step
   13   -2290.5596870021      1.36e-03   Normal BFGS step
   14   -2290.5596904032      1.14e-03   Normal BFGS step
   15   -2290.5596930500      6.56e-04   Normal BFGS step
   16   -2290.5596948017      4.30e-04   Normal BFGS step
   17   -2290.5596951165      3.45e-04   Normal BFGS step
   18   -2290.5596957963      2.47e-04   Normal BFGS step
   19   -2290.5596959204      1.75e-04   Normal BFGS step
   20   -2290.5596960756      2.01e-04   Normal BFGS step
   21   -2290.5596961112      6.63e-05   Normal BFGS step
   22   -2290.5596961529      5.59e-05   Normal BFGS step
   23   -2290.5596961687      5.39e-05   Normal BFGS step
   24   -2290.5596961734      3.41e-05   Normal BFGS step
   25   -2290.5596961777      2.22e-05   Normal BFGS step
   26   -2290.5596961782      1.55e-05   Normal BFGS step
   27   -2290.5596961788      3.35e-05   Normal BFGS step
  /scratch/qcdevops/jenkins/workspace/build_qchem_linux_distrib/tags/qc511/qchem/libgscf/libgscf/opt/gdm.C::WARNING energy changes are now smaller than effective accuracy.
  /scratch/qcdevops/jenkins/workspace/build_qchem_linux_distrib/tags/qc511/qchem/libgscf/libgscf/opt/gdm.C::        calculation will continue, but THRESH should be increased
  /scratch/qcdevops/jenkins/workspace/build_qchem_linux_distrib/tags/qc511/qchem/libgscf/libgscf/opt/gdm.C::        or SCF_CONVERGENCE decreased. 
  /scratch/qcdevops/jenkins/workspace/build_qchem_linux_distrib/tags/qc511/qchem/libgscf/libgscf/opt/gdm.C::        effective_thresh = 5.71e-09
   28   -2290.5596961755      1.11e-04   Normal BFGS step
   29   -2290.5596961782      2.16e-05   Normal BFGS step
   30   -2290.5596961762      3.31e-05   Normal BFGS step
   31   -2290.5596961791      1.95e-05   Normal BFGS step
  /scratch/qcdevops/jenkins/workspace/build_qchem_linux_distrib/tags/qc511/qchem/libgscf/libgscf/opt/gdm.C::WARNING energy changes are now smaller than effective accuracy.
  /scratch/qcdevops/jenkins/workspace/build_qchem_linux_distrib/tags/qc511/qchem/libgscf/libgscf/opt/gdm.C::        calculation will continue, but THRESH should be increased
  /scratch/qcdevops/jenkins/workspace/build_qchem_linux_distrib/tags/qc511/qchem/libgscf/libgscf/opt/gdm.C::        or SCF_CONVERGENCE decreased. 
  /scratch/qcdevops/jenkins/workspace/build_qchem_linux_distrib/tags/qc511/qchem/libgscf/libgscf/opt/gdm.C::        effective_thresh = 5.71e-09
   32   -2290.5596961759      5.23e-05   Normal BFGS step
   33   -2290.5596961796      3.87e-06   Normal BFGS step
   34   -2290.5596961793      1.22e-05   Normal BFGS step
   35   -2290.5596961796      1.47e-06   Normal BFGS step
   36   -2290.5596961796      2.78e-06   Normal BFGS step
   37   -2290.5596961797      2.87e-07   Normal BFGS step
   38   -2290.5596961796      7.01e-07   Normal BFGS step
   39   -2290.5596961797      2.58e-07   Normal BFGS step
   40   -2290.5596961797      4.50e-07   Normal BFGS step
   41   -2290.5596961797      7.14e-08   Normal BFGS step
   42   -2290.5596961797      1.15e-07   Normal BFGS step
   43   -2290.5596961797      3.52e-08   Normal BFGS step
   44   -2290.5596961797      3.93e-08   Normal BFGS step
   45   -2290.5596961797      1.72e-08   Normal BFGS step
   46   -2290.5596961797      2.74e-08   Normal BFGS step
   47   -2290.5596961797      5.86e-08   Normal BFGS step
   48   -2290.5596961797      1.09e-07   Normal BFGS step
   49   -2290.5596961797      8.92e-09  Convergence criterion met
 ---------------------------------------
 SCF time:   CPU 473.66s  wall 39.00s 
<S^2> =          7.052785211
 SCF   energy in the final basis set =    -2290.5596961797
 Total energy in the final basis set =    -2290.5596961797
 
 --------------------------------------------------------------
 
                    Orbital Energies (a.u.)
 --------------------------------------------------------------
 
 Alpha MOs
 -- Occupied --
******* -29.658 -26.212 -26.209 -26.207 -18.971 -18.962 -14.277
-14.275 -14.249 -14.232 -14.144 -14.135 -14.110 -14.106 -10.124
-10.118 -10.100 -10.097 -10.096 -10.096 -10.092 -10.083 -10.073
-10.064 -10.064 -10.047  -3.873  -2.714  -2.713  -2.704  -1.314
 -1.220  -1.192  -1.175  -1.160  -1.080  -1.056  -1.040  -1.027
 -1.000  -0.941  -0.930  -0.921  -0.904  -0.876  -0.827  -0.804
 -0.799  -0.796  -0.784  -0.776  -0.769  -0.766  -0.763  -0.753
 -0.751  -0.694  -0.684  -0.663  -0.659  -0.658  -0.649  -0.645
 -0.640  -0.634  -0.633  -0.629  -0.623  -0.618  -0.606  -0.603
 -0.598  -0.595  -0.581  -0.560  -0.549  -0.546  -0.537  -0.532
 -0.522  -0.495  -0.488  -0.476  -0.460  -0.454  -0.451  -0.442
 -0.430  -0.423  -0.423  -0.408  -0.397  -0.392
 -- Virtual --
 -0.365  -0.353  -0.293  -0.252  -0.242  -0.231  -0.223  -0.198
 -0.187  -0.181  -0.176  -0.166  -0.156  -0.092  -0.062  -0.060
 -0.053  -0.026  -0.023  -0.014   0.006   0.008   0.026   0.026
  0.035   0.043   0.045   0.047   0.063   0.077   0.082   0.093
  0.096   0.104   0.126   0.131   0.144   0.150   0.218   0.222
  0.229   0.237   0.239   0.244   0.247   0.250   0.325   0.327
  0.330   0.345
 
 Beta MOs
 -- Occupied --
******* -29.618 -26.179 -26.177 -26.176 -18.973 -18.971 -14.277
-14.276 -14.249 -14.232 -14.144 -14.135 -14.110 -14.108 -10.124
-10.117 -10.100 -10.097 -10.096 -10.096 -10.092 -10.085 -10.072
-10.064 -10.064 -10.047  -3.666  -2.511  -2.501  -2.499  -1.331
 -1.219  -1.191  -1.174  -1.162  -1.079  -1.055  -1.039  -1.030
 -1.016  -0.940  -0.929  -0.921  -0.908  -0.873  -0.826  -0.804
 -0.799  -0.796  -0.783  -0.776  -0.769  -0.765  -0.764  -0.754
 -0.752  -0.697  -0.678  -0.662  -0.657  -0.656  -0.653  -0.643
 -0.641  -0.635  -0.633  -0.630  -0.624  -0.620  -0.606  -0.602
 -0.601  -0.598  -0.586  -0.563  -0.506  -0.490  -0.479  -0.467
 -0.457  -0.455  -0.444  -0.442  -0.426  -0.422  -0.417  -0.408
 -0.401  -0.390
 -- Virtual --
 -0.380  -0.359  -0.345  -0.339  -0.331  -0.322  -0.283  -0.246
 -0.236  -0.225  -0.217  -0.207  -0.182  -0.179  -0.173  -0.166
 -0.148  -0.091  -0.063  -0.061  -0.053  -0.026  -0.022  -0.012
  0.006   0.009   0.026   0.027   0.036   0.041   0.045   0.047
  0.061   0.077   0.083   0.094   0.095   0.110   0.127   0.131
  0.143   0.157   0.218   0.223   0.230   0.237   0.240   0.242
  0.247   0.249   0.326   0.328   0.330   0.343
 --------------------------------------------------------------
 
          Ground-State Mulliken Net Atomic Charges

     Atom                 Charge (a.u.)    Spin (a.u.)
  --------------------------------------------------------
      1 O                    -0.124981      -0.126986
      2 O                     0.082661      -0.590242
      3 Fe                    0.632697       4.848771
      4 N                    -0.194174      -0.006242
      5 C                     0.090455       0.009387
      6 N                    -0.238335       0.014621
      7 C                     0.002432       0.015695
      8 C                    -0.005663       0.019868
      9 H                     0.135838      -0.000579
     10 H                     0.141182      -0.000937
     11 H                     0.137870      -0.000359
     12 H                     0.268337      -0.000741
     13 H                     0.151413      -0.000437
     14 C                     0.023258       0.009402
     15 H                     0.263802      -0.002863
     16 N                    -0.226380       0.031302
     17 C                     0.018177       0.020939
     18 C                     0.074414       0.021910
     19 H                     0.156447      -0.000746
     20 N                    -0.160891       0.001511
     21 H                     0.134622      -0.000618
     22 H                     0.142374       0.002491
     23 C                    -0.027561      -0.013288
     24 H                     0.107174      -0.035870
     25 N                    -0.334093       0.001285
     26 C                     0.030434       0.037483
     27 C                     0.113098       0.022141
     28 H                     0.159081      -0.001504
     29 N                    -0.132880       0.012431
     30 H                     0.164004      -0.000575
     31 H                     0.128009       0.006825
     32 C                     0.014946      -0.160365
     33 H                     0.259983       0.000535
     34 N                    -0.247747      -0.009494
     35 C                     0.004846       0.011381
     36 C                     0.108987      -0.005288
     37 H                     0.145863       0.000070
     38 N                    -0.167770      -0.116822
     39 H                     0.168071      -0.014089
  --------------------------------------------------------
  Sum of atomic charges =     2.000000
  Sum of spin   charges =     4.000000

 -----------------------------------------------------------------
                    Cartesian Multipole Moments
 -----------------------------------------------------------------
    Charge (ESU x 10^10)
                 9.6064
    Dipole Moment (Debye)
         X      -1.8004      Y      -4.7473      Z       7.1970
       Tot       8.8077
    Quadrupole Moments (Debye-Ang)
        XX     -85.6028     XY      11.1184     YY    -109.8466
        XZ       7.7380     YZ      -6.3710     ZZ    -106.0431
    Octopole Moments (Debye-Ang^2)
       XXX     -36.3699    XXY     -36.0848    XYY      13.8941
       YYY     -31.4927    XXZ      42.6459    XYZ      -2.6585
       YYZ      37.6801    XZZ      -6.3250    YZZ     -23.9186
       ZZZ      39.3848
    Hexadecapole Moments (Debye-Ang^3)
      XXXX   -3098.2396   XXXY     -66.3963   XXYY   -1149.8589
      XYYY      84.1191   YYYY   -2537.7232   XXXZ      19.4746
      XXYZ       0.0236   XYYZ      48.0167   YYYZ     -38.0855
      XXZZ    -819.5854   XYZZ      22.9355   YYZZ    -668.3881
      XZZZ       4.1939   YZZZ     -42.8326   ZZZZ   -1491.9257
 -----------------------------------------------------------------
 Calculating analytic gradient of the SCF energy
 Gradient of SCF Energy
            1           2           3           4           5           6
    1   0.1463804  -0.0411580  -0.0334387  -0.0359616  -0.0277180  -0.0125652
    2   0.0033846   0.0162832   0.0023171   0.0007169   0.0077886  -0.0057845
    3  -0.0192942   0.0323566  -0.0669372   0.0256001   0.0043964  -0.0361280
            7           8           9          10          11          12
    1   0.0485803   0.0186175   0.0081305   0.0013343  -0.0094458   0.0001498
    2  -0.0133441  -0.0036101   0.0075818   0.0035011   0.0003342   0.0069556
    3   0.0117605   0.0017697  -0.0112108   0.0086575  -0.0070181  -0.0038730
           13          14          15          16          17          18
    1  -0.0008814   0.0366388   0.0008543  -0.0169969   0.0111789  -0.0277420
    2   0.0094300   0.0163691   0.0032137   0.0406369   0.0174572  -0.0385867
    3  -0.0032110  -0.0020229  -0.0159154  -0.0117500  -0.0065703   0.0274301
           19          20          21          22          23          24
    1   0.0086475  -0.0029696  -0.0032840  -0.0054269   0.0662177  -0.0644480
    2  -0.0040130  -0.0375696  -0.0052628   0.0111409   0.0346899   0.0269515
    3   0.0013509   0.0162065  -0.0164198   0.0052782  -0.0018463   0.0934539
           25          26          27          28          29          30
    1  -0.0191465   0.0048141   0.0086322   0.0091496  -0.0085046  -0.0097997
    2  -0.0130261   0.0264677  -0.0432702  -0.0013929  -0.0356830  -0.0040347
    3  -0.0305330  -0.0116755   0.0244700   0.0029695   0.0154061   0.0006084
           31          32          33          34          35          36
    1  -0.0004208   0.0344083  -0.0050969  -0.0086644   0.0092838  -0.0341511
    2   0.0010078  -0.0188415   0.0002341   0.0223817  -0.0070640   0.0071821
    3  -0.0108517  -0.0140151  -0.0069384  -0.0248330  -0.0063560   0.0124218
           37          38          39
    1   0.0015768  -0.0112621  -0.0355125
    2  -0.0084740  -0.0168323  -0.0092362
    3   0.0029123   0.0359896  -0.0156382
 Max gradient component =       1.464E-01
 RMS gradient           =       2.648E-02
 Gradient time:  CPU 27.88 s  wall 2.42 s
 Geometry Optimization Parameters
   NAtoms,    NIC,     NZ,  NCons,   NDum,   NFix, NCnnct, MaxDiis
       39     424       0       0       0       0       0       0

 Cartesian Hessian Update
 Hessian Updated using BFGS Update


** GEOMETRY OPTIMIZATION IN DELOCALIZED INTERNAL COORDINATES **
   Searching for a Minimum

   Optimization Cycle:   3

                       Coordinates (Angstroms)
     ATOM                X               Y               Z
      1  O         1.6528434289   -0.2735603874   -0.5511047826
      2  O         2.9067297611   -0.3047809101   -0.9379868983
      3  Fe       -0.1671360898   -0.2238437066    0.0083231056
      4  N         1.4991243487   -3.0236873631   -0.9400993742
      5  C         1.8109272736   -2.8110260657    0.3756823410
      6  N         0.6968973188   -2.8828310586    1.2038747138
      7  C        -0.3896520370   -3.1429980886    0.3693519198
      8  C         0.1203271136   -3.2330552677   -0.9418420637
      9  H        -1.4239491070   -3.2631289845    0.6942724303
     10  H        -0.4678500044   -3.4392847728   -1.8439917139
     11  H         2.8230698730   -2.6027817773    0.7341331305
     12  H         0.6799263761   -2.7612283846    2.2514721073
     13  H        -3.6281978441   -1.3693545536    2.0976117077
     14  C        -3.1624181408   -0.3976338383    1.8996987758
     15  H        -1.0802648293   -0.7704720276    2.4367272156
     16  N        -1.8243629267   -0.1161296464    2.0883763809
     17  C        -3.7608643589    0.7815160151    1.4212879585
     18  C        -1.6418199851    1.2349927822    1.7197867129
     19  H        -4.8197052981    0.9087895366    1.1667393996
     20  N        -2.8200385350    1.8054851592    1.3009964551
     21  H        -0.6862289699    1.7721408380    1.7736481876
     22  H        -2.2596397066   -1.4256546166   -1.3116731300
     23  C        -2.0568939826   -0.4115400005   -1.6695060840
     24  H         0.1510870064   -0.2182301531   -1.4146064684
     25  N        -0.8019521880    0.2135442551   -1.7049516535
     26  C        -2.9729622687    0.5083169949   -2.1746145496
     27  C        -1.0073461942    1.5024897742   -2.2376566363
     28  H        -4.0522535925    0.3514481214   -2.2906834270
     29  N        -2.3227281437    1.7023634178   -2.5319292148
     30  H        -0.2084358264    2.2381770612   -2.3943594497
     31  H         1.3077653639    2.3701869479    2.1991294765
     32  C         2.0262862096    2.2235414080    1.3845376374
     33  H         2.8440319700    0.2562001465    1.8574468532
     34  N         2.8191036001    1.0980284386    1.2295676359
     35  C         2.3347581713    3.0933242474    0.3152223503
     36  C         3.5695856172    1.3014528091    0.0728472362
     37  H         1.8893947545    4.0784645172    0.1345109326
     38  N         3.2977267523    2.5277367076   -0.5118938242
     39  H         4.2938650268    0.5847106051   -0.3216120159
   Point Group: c1    Number of degrees of freedom:   111


   Energy is  -2290.559696180

 Hessian Updated using BFGS Update

111 Hessian modes will be used to form the next step
  Hessian Eigenvalues:
     0.002260    0.002880    0.005611    0.008926    0.009544    0.011555
     0.013382    0.014074    0.016045    0.017145    0.017831    0.019303
     0.019367    0.020129    0.020517    0.021037    0.021862    0.022418
     0.022575    0.022809    0.023096    0.023458    0.023775    0.024124
     0.024532    0.024722    0.024840    0.025024    0.025073    0.026210
     0.027353    0.029533    0.030491    0.032579    0.036351    0.037572
     0.043740    0.045963    0.053312    0.062341    0.067885    0.073033
     0.079618    0.081119    0.082529    0.091768    0.096712    0.099243
     0.101756    0.107654    0.115856    0.123327    0.129345    0.132640
     0.137925    0.144822    0.151039    0.157216    0.159846    0.160000
     0.160000    0.160000    0.160000    0.160000    0.160079    0.162302
     0.170827    0.173043    0.182480    0.200921    0.213421    0.219730
     0.226091    0.234666    0.277969    0.292933    0.299593    0.303855
     0.323791    0.339973    0.341765    0.348535    0.351645    0.355411
     0.357706    0.357954    0.358034    0.358353    0.360388    0.394597
     0.407566    0.408636    0.409542    0.420546    0.435056    0.438294
     0.467099    0.469674    0.490980    0.508561    0.524622    0.526959
     0.529072    0.532060    0.546465    0.552537    0.554077    0.559786
     0.564401    0.648740    0.746470

 Minimum Search - Taking Simple RFO Step
 Searching for Lamda that Minimizes Along All modes
 Value Taken    Lamda =  -0.13011019
 Calculated Step too Large.  Step scaled by  0.430806
 Step Taken.  Stepsize is  0.300000

                             Maximum     Tolerance    Cnvgd?
         Gradient           0.061102      0.000300      NO
         Displacement       0.088365      0.001200      NO
         Energy change     -0.069872      0.000001      NO


 New Cartesian Coordinates Obtained by Inverse Iteration

 Displacement from previous Coordinates is:  1.097821
 ----------------------------------------------------------------
             Standard Nuclear Orientation (Angstroms)
    I     Atom           X                Y                Z
 ----------------------------------------------------------------
    1      O       1.6109910780    -0.2811257777    -0.5662640769
    2      O       2.8975080433    -0.3025101749    -0.9333374930
    3      Fe     -0.1588468288    -0.2391786474    -0.0629034563
    4      N       1.5030810545    -3.0299925594    -0.9553357554
    5      C       1.7924130810    -2.8174956216     0.3712190890
    6      N       0.6618237824    -2.8977986895     1.1961531522
    7      C      -0.4280374312    -3.1495836394     0.3347303149
    8      C       0.1115675074    -3.2420976414    -0.9728911536
    9      H      -1.4697636570    -3.2759945543     0.6459330821
   10      H      -0.4565972974    -3.4565208560    -1.8911033895
   11      H       2.8006986426    -2.6007950765     0.7457314225
   12      H       0.6438047297    -2.7921524336     2.2506716259
   13      H      -3.6536746348    -1.3654527967     2.2603636104
   14      C      -3.1849290136    -0.3952717187     2.0399974438
   15      H      -1.0832189167    -0.7850944458     2.5488468824
   16      N      -1.8286844225    -0.1270278657     2.2047544521
   17      C      -3.7731771321     0.7928557231     1.5598452500
   18      C      -1.6306160113     1.2395694883     1.8147164939
   19      H      -4.8383660771     0.9374895113     1.3230305130
   20      N      -2.8180757144     1.8186648903     1.4050458134
   21      H      -0.6694471334     1.7757752133     1.8636443932
   22      H      -2.2573758049    -1.4512131118    -1.4028006222
   23      C      -2.0453719350    -0.4389301720    -1.7710876827
   24      H       0.2092504836    -0.2461996995    -1.5309551406
   25      N      -0.7670808456     0.1924165253    -1.8100803508
   26      C      -2.9471725513     0.4877697328    -2.2934655404
   27      C      -0.9726430523     1.4929857688    -2.3689681015
   28      H      -4.0315156128     0.3434419916    -2.4187514834
   29      N      -2.2870861481     1.6918278988    -2.6709584201
   30      H      -0.1612320137     2.2207324184    -2.5322667697
   31      H       1.3245951243     2.4073450630     2.2550346587
   32      C       2.0259065726     2.2582639187     1.4205845834
   33      H       2.8881933086     0.3018927790     1.9152644270
   34      N       2.8375230941     1.1311529561     1.2685443540
   35      C       2.3108534129     3.1110159092     0.3221088302
   36      C       3.5728866011     1.3232877443     0.0847002798
[...]
 -------------------------------------------------------
 OpenMP Integral computing Module                
 Release: version 1.0, May 2013, Q-Chem Inc. Pittsburgh 
 -------------------------------------------------------
 -------------------------------------------------------
 OpenMP BLAS3 based DFT computing Module                
 Release: version 1.0, May 2013, Q-Chem Inc. Pittsburgh 
 -------------------------------------------------------
 A unrestricted SCF calculation will be
 performed using DIIS, GDM
 SCF converges when RMS gradient is below 1.0e-08
 ---------------------------------------
  Cycle       Energy         DIIS error
 ---------------------------------------
    1   -2290.9429626080      1.34e-04  
    2   -2290.9435214708      5.98e-05  Done DIIS. Switching to GDM
 ---------------------------------------
  Cycle       Energy        RMS Gradient
 ---------------------------------------
    1   -2290.9435214708      1.84e-02   Normal BFGS step
    2   -2290.9428793413      5.65e-02  Line search: overstep
    3   -2290.9436056184      1.36e-03   Normal BFGS step
    4   -2290.9435619996      5.32e-03  Line search: overstep
    5   -2290.9436132521      9.06e-04   Normal BFGS step
    6   -2290.9436009523      3.03e-03  Line search: overstep
    7   -2290.9436161360      5.80e-04   Normal BFGS step
    8   -2290.9436137770      1.41e-03  Line search: overstep
    9   -2290.9436169893      3.07e-04   Normal BFGS step
   10   -2290.9436169141      3.33e-04  Line search: overstep
   11   -2290.9436172053      2.12e-04   Normal BFGS step
   12   -2290.9436172758      1.86e-04   Normal BFGS step
   13   -2290.9436172891      2.21e-04   Normal BFGS step
   14   -2290.9436173144      1.34e-04   Normal BFGS step
   15   -2290.9436173215      8.22e-05   Normal BFGS step
   16   -2290.9436173320      3.60e-05   Normal BFGS step
   17   -2290.9436173372      3.90e-05   Normal BFGS step
   18   -2290.9436173370      2.74e-05   Normal BFGS step
   19   -2290.9436173406      9.11e-06   Normal BFGS step
   20   -2290.9436173403      1.47e-05   Normal BFGS step
   21   -2290.9436173409      3.78e-06   Normal BFGS step
   22   -2290.9436173408      5.45e-06   Normal BFGS step
   23   -2290.9436173410      1.85e-06   Normal BFGS step
   24   -2290.9436173410      3.46e-06   Normal BFGS step
   25   -2290.9436173410      6.63e-07   Normal BFGS step
   26   -2290.9436173410      9.51e-07   Normal BFGS step
   27   -2290.9436173410      3.10e-07   Normal BFGS step
   28   -2290.9436173410      3.14e-07   Normal BFGS step
   29   -2290.9436173410      8.39e-08   Normal BFGS step
   30   -2290.9436173410      1.71e-07   Normal BFGS step
   31   -2290.9436173410      1.85e-07   Normal BFGS step
   32   -2290.9436173410      4.87e-07   Normal BFGS step
   33   -2290.9436173410      2.57e-08   Normal BFGS step
   34   -2290.9436173410      6.81e-08   Normal BFGS step
   35   -2290.9436173410      2.26e-08   Normal BFGS step
   36   -2290.9436173410      6.69e-08   Normal BFGS step
   37   -2290.9436173410      5.50e-09  Convergence criterion met
 ---------------------------------------
 SCF time:   CPU 348.50s  wall 29.00s 
<S^2> =          6.417650923
 SCF   energy in the final basis set =    -2290.9436173410
 Total energy in the final basis set =    -2290.9436173410
 
 --------------------------------------------------------------
 
                    Orbital Energies (a.u.)
 --------------------------------------------------------------
 
 Alpha MOs
 -- Occupied --
******* -29.574 -26.127 -26.125 -26.123 -18.925 -18.864 -14.220
-14.214 -14.202 -14.198 -14.130 -14.120 -14.108 -14.105 -10.145
-10.100 -10.091 -10.069 -10.067 -10.067 -10.066 -10.063 -10.059
-10.052 -10.039 -10.030  -3.768  -2.610  -2.608  -2.602  -1.216
 -1.131  -1.128  -1.119  -1.102  -1.038  -1.024  -1.013  -1.008
 -1.000  -0.902  -0.899  -0.879  -0.876  -0.793  -0.783  -0.779
 -0.762  -0.755  -0.749  -0.744  -0.727  -0.725  -0.721  -0.720
 -0.688  -0.671  -0.648  -0.640  -0.634  -0.627  -0.615  -0.614
 -0.610  -0.609  -0.606  -0.595  -0.582  -0.579  -0.573  -0.567
 -0.562  -0.556  -0.553  -0.537  -0.529  -0.502  -0.486  -0.475
 -0.468  -0.462  -0.456  -0.447  -0.435  -0.429  -0.421  -0.410
 -0.406  -0.404  -0.398  -0.378  -0.365  -0.350
 -- Virtual --
 -0.320  -0.264  -0.257  -0.236  -0.214  -0.190  -0.187  -0.184
 -0.155  -0.109  -0.104  -0.077  -0.070  -0.064  -0.059  -0.049
 -0.046  -0.036  -0.013  -0.012  -0.009  -0.004   0.022   0.030
  0.035   0.041   0.042   0.054   0.058   0.065   0.083   0.084
  0.091   0.104   0.110   0.117   0.127   0.131   0.157   0.174
  0.201   0.204   0.205   0.210   0.224   0.246   0.272   0.289
  0.345   0.373
 
 Beta MOs
 -- Occupied --
******* -29.540 -26.100 -26.098 -26.096 -18.924 -18.862 -14.220
-14.215 -14.202 -14.197 -14.130 -14.122 -14.108 -14.105 -10.145
-10.103 -10.091 -10.069 -10.068 -10.066 -10.066 -10.063 -10.058
-10.051 -10.039 -10.030  -3.593  -2.450  -2.425  -2.422  -1.210
 -1.130  -1.126  -1.122  -1.102  -1.032  -1.021  -1.016  -1.008
 -1.000  -0.900  -0.898  -0.882  -0.876  -0.794  -0.782  -0.778
 -0.759  -0.754  -0.750  -0.744  -0.728  -0.725  -0.720  -0.718
 -0.688  -0.663  -0.646  -0.640  -0.630  -0.626  -0.615  -0.613
 -0.610  -0.606  -0.604  -0.593  -0.581  -0.578  -0.570  -0.561
 -0.555  -0.549  -0.541  -0.531  -0.511  -0.482  -0.479  -0.466
 -0.461  -0.455  -0.441  -0.440  -0.425  -0.410  -0.403  -0.397
 -0.390  -0.346
 -- Virtual --
 -0.333  -0.288  -0.275  -0.251  -0.244  -0.234  -0.227  -0.206
 -0.199  -0.196  -0.181  -0.173  -0.154  -0.111  -0.092  -0.072
 -0.069  -0.063  -0.055  -0.043  -0.042  -0.034  -0.015  -0.010
 -0.004  -0.003   0.024   0.034   0.036   0.037   0.043   0.053
  0.065   0.071   0.085   0.086   0.093   0.103   0.114   0.118
  0.126   0.138   0.157   0.182   0.202   0.202   0.206   0.210
  0.225   0.246   0.273   0.286   0.347   0.373
 --------------------------------------------------------------
 
          Ground-State Mulliken Net Atomic Charges

     Atom                 Charge (a.u.)    Spin (a.u.)
  --------------------------------------------------------
      1 O                    -0.240946       0.132952
      2 O                     0.004378       0.080049
      3 Fe                    0.803076       3.941549
      4 N                    -0.162482      -0.007780
      5 C                     0.115973       0.048454
      6 N                    -0.217097       0.006837
      7 C                    -0.065671      -0.023113
      8 C                     0.013003       0.073772
      9 H                     0.143170       0.003177
     10 H                     0.127062      -0.003225
     11 H                     0.151282      -0.002291
     12 H                     0.270491      -0.000179
     13 H                     0.154520       0.000790
     14 C                     0.025867       0.014989
     15 H                     0.265353      -0.002635
     16 N                    -0.230695       0.067230
     17 C                     0.006988       0.087613
     18 C                    -0.059747      -0.075454
     19 H                     0.143079      -0.002586
     20 N                    -0.334248       0.028013
     21 H                     0.109855       0.000123
     22 H                     0.129590      -0.000057
     23 C                    -0.011532       0.000943
     24 H                     0.256260       0.001873
     25 N                    -0.277006       0.010171
     26 C                     0.008679       0.003675
     27 C                     0.096624       0.003917
     28 H                     0.151045      -0.000081
     29 N                    -0.138904       0.003046
     30 H                     0.143197      -0.000112
     31 H                     0.159829       0.009655
     32 C                     0.056960      -0.200965
     33 H                     0.272120       0.002237
     34 N                    -0.222617      -0.076028
     35 C                     0.018985       0.033631
     36 C                     0.142862       0.006839
     37 H                     0.151743      -0.000574
     38 N                    -0.133264      -0.162679
     39 H                     0.172221      -0.003780
  --------------------------------------------------------
  Sum of atomic charges =     2.000000
  Sum of spin   charges =     4.000000

 -----------------------------------------------------------------
                    Cartesian Multipole Moments
 -----------------------------------------------------------------
    Charge (ESU x 10^10)
                 9.6064
    Dipole Moment (Debye)
         X       0.8589      Y      -2.0365      Z       8.8230
       Tot       9.0956
    Quadrupole Moments (Debye-Ang)
        XX     -70.8160     XY      18.3776     YY     -99.0735
        XZ      19.8033     YZ       3.1464     ZZ     -77.3157
    Octopole Moments (Debye-Ang^2)
       XXX      48.0310    XXY      16.0245    XYY      47.2789
       YYY      13.1957    XXZ      63.3255    XYZ       4.2121
       YYZ      64.1464    XZZ     -16.0990    YZZ     -12.5626
       ZZZ      95.9836
    Hexadecapole Moments (Debye-Ang^3)
      XXXX   -2514.2564   XXXY     -21.6664   XXYY    -926.3948
      XYYY     -31.6293   YYYY   -2205.2160   XXXZ    -150.7401
      XXYZ      38.0838   XYYZ     -27.7415   YYYZ     -15.3555
      XXZZ    -660.6631   XYZZ      56.6875   YYZZ    -693.9918
      XZZZ    -319.6772   YZZZ       7.5099   ZZZZ   -1684.2896
 -----------------------------------------------------------------
 Calculating analytic gradient of the SCF energy
 Gradient of SCF Energy
            1           2           3           4           5           6
    1   0.0030783  -0.0014333   0.0009809   0.0004221   0.0004242  -0.0001732
    2  -0.0008445  -0.0001965   0.0005516   0.0016406   0.0011479  -0.0000698
    3  -0.0010530  -0.0008255  -0.0010455   0.0003603  -0.0000807   0.0007778
            7           8           9          10          11          12
    1  -0.0002893  -0.0001370  -0.0004132  -0.0006978  -0.0003330   0.0000095
    2  -0.0007101   0.0013036  -0.0002410   0.0016164   0.0018411  -0.0001546
    3   0.0005199   0.0005906   0.0006364   0.0007617  -0.0000209   0.0006841
           13          14          15          16          17          18
    1   0.0036616  -0.0003008   0.0012494  -0.0016279  -0.0012343  -0.0024977
    2   0.0000984   0.0002287   0.0009172  -0.0023127   0.0006609  -0.0000006
    3  -0.0015748  -0.0017173  -0.0003208  -0.0008203   0.0015985   0.0011882
           19          20          21          22          23          24
    1   0.0032049  -0.0002583   0.0001642  -0.0010261  -0.0016253   0.0010386
    2   0.0000612   0.0003903  -0.0011900   0.0002634  -0.0005451   0.0011828
    3   0.0019924  -0.0014395   0.0005124  -0.0004283   0.0009829  -0.0027812
           25          26          27          28          29          30
    1  -0.0001945  -0.0007830  -0.0004541   0.0009980  -0.0010079  -0.0008908
    2  -0.0019165   0.0011822  -0.0002424   0.0002269  -0.0004039  -0.0014153
    3   0.0010872   0.0004898  -0.0010118  -0.0013709  -0.0006586   0.0011027
           31          32          33          34          35          36
    1  -0.0017888  -0.0004443   0.0001047  -0.0018817   0.0014273   0.0016323
    2  -0.0004062   0.0034148  -0.0015814   0.0007959   0.0009208  -0.0016881
    3   0.0018086   0.0008567   0.0007247   0.0019903  -0.0010983  -0.0012602
           37          38          39
    1  -0.0015497  -0.0007175   0.0033636
    2  -0.0006517  -0.0019488  -0.0019258
    3  -0.0006970   0.0018871  -0.0023481
 Max gradient component =       3.662E-03
 RMS gradient           =       1.305E-03
 Gradient time:  CPU 27.39 s  wall 2.40 s
 Geometry Optimization Parameters
   NAtoms,    NIC,     NZ,  NCons,   NDum,   NFix, NCnnct, MaxDiis
       39     424       0       0       0       0       0       0

 Cartesian Hessian Update
 Hessian Updated using BFGS Update


** GEOMETRY OPTIMIZATION IN CARTESIAN COORDINATES **
   Searching for a Minimum

   Optimization Cycle:  50

                       Coordinates (Angstroms)
     ATOM                X               Y               Z
      1  O         1.1766037941    0.0667117474   -0.5891608138
      2  O         2.6299802453   -0.1321210465   -0.3981293219
      3  Fe       -0.3099736053   -0.2334328628   -0.1321089532
      4  N         1.5475114198   -3.0702817739   -0.9180920404
      5  C         1.7000070096   -3.0934900528    0.4835063347
      6  N         0.5040001495   -2.8499873006    1.1728522053
      7  C        -0.5386320006   -2.5594535799    0.1838981111
      8  C         0.1510223564   -2.8269566295   -1.0724545594
      9  H        -1.5852404307   -2.8320834848    0.4393811466
     10  H        -0.3139238112   -2.8171073001   -2.0777422603
     11  H         2.6638713079   -3.2511125662    1.0118039216
     12  H         0.3600683940   -2.8949352541    2.2225955829
     13  H        -3.6994167747   -0.4992617593    2.9749339575
     14  C        -2.8580740846   -0.1292992001    2.3647680221
     15  H        -1.2435264572   -0.4523909275    3.7997929652
     16  N        -1.5179608992   -0.3157406654    2.7869542410
     17  C        -2.8512906338    0.4880282867    1.1127711402
     18  C        -0.6099347392    0.2650322262    1.7917347961
     19  H        -3.7007561766    0.7439688474    0.4602447102
     20  N        -1.4886890772    0.7555071395    0.6936261177
     21  H         0.1283687995    0.9712339899    2.2445971466
     22  H        -2.8446912249   -1.6900557551   -2.2609698595
     23  C        -2.6301724782   -0.6124131808   -2.3783873880
     24  H        -0.5576235666   -0.4879235933   -2.8734273040
     25  N        -1.2187895700   -0.0800835315   -2.1240117069
     26  C        -3.4239807964    0.4272706527   -2.7714074938
     27  C        -1.4283474708    1.4052090110   -2.5250699557
     28  H        -4.4937579402    0.4060605720   -3.0598591432
     29  N        -2.6814377225    1.7298637671   -2.8652229176
     30  H        -0.5507521868    2.0826114200   -2.4834380958
     31  H         2.1355946607    2.9336906853    2.9401361708
     32  C         2.3725344415    2.5464805528    1.9220201891
     33  H         3.4575037489    0.7464604152    2.4713063131
     34  N         2.9750354001    1.3152155265    1.7114921685
     35  C         2.1404684996    3.1480004353    0.6031505120
     36  C         3.2244150394    1.1436425692    0.1748997727
     37  H         1.6131066803    4.1109437129    0.4321002415
     38  N         2.6046901537    2.4059389753   -0.4634306538
     39  H         4.3309394833    1.0179481115   -0.0489199211
   Point Group: c1    Number of degrees of freedom:   111


   Energy is  -2290.943617341


 Translations and Rotations Projected Out of Hessian

106 Hessian modes will be used to form the next step
  Hessian Eigenvalues:
     0.002695    0.010951    0.014210    0.029656    0.034441    0.060547
     0.087078    0.126963    0.136210    0.199949    0.231007    0.262717
     0.344973    0.411075    0.454535    0.637787    0.741465    0.843339
     0.856037    0.918967    0.926147    0.960199    0.982693    0.998640
     0.999716    0.999889    0.999988    0.999996    0.999998    1.000000
     1.000000    1.000000    1.000000    1.000000    1.000000    1.000000
     1.000000    1.000000    1.000000    1.000000    1.000000    1.000000
     1.000000    1.000000    1.000000    1.000000    1.000000    1.000000
     1.000000    1.000000    1.000000    1.000000    1.000000    1.000000
     1.000000    1.000000    1.000000    1.000000    1.000000    1.000000
     1.000000    1.000000    1.000000    1.000000    1.000001    1.000002
     1.000004    1.000010    1.000023    1.000027    1.000031    1.000054
     1.000076    1.000087    1.000094    1.000266    1.000310    1.000415
     1.000502    1.000555    1.000866    1.001208    1.001453    1.002543
     1.003314    1.003816    1.004183    1.005425    1.005700    1.009246
     1.009320    1.011800    1.013370    1.015130    1.031311    1.043733
     1.067640    1.080779    1.118671    1.140687    1.181871    1.218814
     1.249073    1.342837    1.808746    2.912549

 Minimum Search - Taking Simple RFO Step
 Searching for Lamda that Minimizes Along All modes
 Value Taken    Lamda =  -0.00048564
 Step Taken.  Stepsize is  0.160652

                             Maximum     Tolerance    Cnvgd?
         Gradient           0.003662      0.000300      NO
         Displacement       0.047577      0.001200      NO
         Energy change     -0.000434      0.000001      NO

 ----------------------------------------------------------------
             Standard Nuclear Orientation (Angstroms)
    I     Atom           X                Y                Z
 ----------------------------------------------------------------
    1      O       1.1743189661     0.0633858270    -0.5885022957
    2      O       2.6319812294    -0.1302216909    -0.3999625057
    3      Fe     -0.3113334119    -0.2388480128    -0.1306107630
    4      N       1.5534296670    -3.0889864494    -0.9208839087
    5      C       1.7060124069    -3.1094599478     0.4812872570
    6      N       0.5132215809    -2.8496832636     1.1678277233
    7      C      -0.5268776450    -2.5518409921     0.1766846501
    8      C       0.1620227254    -2.8306268439    -1.0779525713
    9      H      -1.5727422428    -2.8269100703     0.4295661075
   10      H      -0.2981920446    -2.8126347642    -2.0854309774
   11      H       2.6693014213    -3.2762891755     1.0091556209
   12      H       0.3669612384    -2.9034681812     2.2163366680
   13      H      -3.7100341272    -0.4778116212     2.9772900756
   14      C      -2.8655210500    -0.1153390880     2.3639919692
   15      H      -1.2504067924    -0.4476864039     3.7983009240
   16      N      -1.5259784040    -0.3062414412     2.7871633799
   17      C      -2.8570845634     0.5028201162     1.1101398018
   18      C      -0.6164581729     0.2647455892     1.7873194434
   19      H      -3.7088829686     0.7639507334     0.4564690229
   20      N      -1.4914749429     0.7588032818     0.6912334359
   21      H       0.1252372111     0.9644211764     2.2365004978
   22      H      -2.8467502627    -1.7003378235    -2.2671067682
   23      C      -2.6312565383    -0.6204616930    -2.3798426377
   24      H      -0.5587508564    -0.4912362266    -2.8759506311
   25      N      -1.2192663631    -0.0908592373    -2.1229976383
   26      C      -3.4254790392     0.4218367661    -2.7665801419
   27      C      -1.4330721253     1.4006877689    -2.5110303194
   28      H      -4.4968593260     0.4021361229    -3.0565788615
   29      N      -2.6846429316     1.7308733860    -2.8517861324
   30      H      -0.5538195586     2.0757409415    -2.4594286378
   31      H       2.1529836329     2.9437893196     2.9437522668
   32      C       2.3781456883     2.5497348353     1.9252229650
   33      H       3.4582284807     0.7514317336     2.4711883465
   34      N       2.9697211265     1.3142492930     1.7124544956
   35      C       2.1415085144     3.1519714539     0.6080399072
   36      C       3.2148016120     1.1431766441     0.1752193607
   37      H       1.6192935107     4.1179114085     0.4386333227
   38      N       2.5979651637     2.4103766797    -0.4631355353
   39      H       4.3184991281     1.0185880291    -0.0492635384
 ----------------------------------------------------------------
 Molecular Point Group                 C1    NOp =  1
 Largest Abelian Subgroup              C1    NOp =  1
 Nuclear Repulsion Energy =  2512.5093288822 hartrees
 There are       94 alpha and       90 beta electrons


 *******************************************
 **  MAXIMUM OPTIMIZATION CYCLES REACHED  **
 *******************************************

 Q-Chem fatal error occurred in module 0, line  456:

 Maximum optimization cycles reached

