
Running Job 1 of 1 sys_1_opt_vdz_gga.in
qchem sys_1_opt_vdz_gga.in_12163.0 /scr/c295_lal/137119/qchem12163/ 1
/usr/software/qchem_511/exe/qcprog.exe_s sys_1_opt_vdz_gga.in_12163.0 /scr/c295_lal/137119/qchem12163/
Check license passed

                  Welcome to Q-Chem
     A Quantum Leap Into The Future Of Chemistry


 Q-Chem 5.1, Q-Chem, Inc., Pleasanton, CA (2018)

 Yihan Shao,  Zhengting Gan,  E. Epifanovsky,  A. T. B. Gilbert,  M. Wormit,  
 J. Kussmann,  A. W. Lange,  A. Behn,  Jia Deng,  Xintian Feng,  D. Ghosh,  
 M. Goldey,  P. R. Horn,  L. D. Jacobson,  I. Kaliman,  T. Kus,  A. Landau,  
 Jie Liu,  E. I. Proynov,  R. M. Richard,  R. P. Steele,  E. J. Sundstrom,  
 H. L. Woodcock III,  P. M. Zimmerman,  D. Zuev,  B. Albrecht,  E. Alguire,  
 S. A. Baeppler,  D. Barton,  Z. Benda,  Y. A. Bernard,  E. J. Berquist,  
 K. B. Bravaya,  H. Burton,  D. Casanova,  Chun-Min Chang,  Yunqing Chen,  
 A. Chien,  K. D. Closser,  M. P. Coons,  S. Coriani,  S. Dasgupta,  
 A. L. Dempwolff,  M. Diedenhofen,  Hainam Do,  R. G. Edgar,  Po-Tung Fang,  
 S. Faraji,  S. Fatehi,  Qingguo Feng,  K. D. Fenk,  J. Fosso-Tande,  
 Qinghui Ge,  A. Ghysels,  G. Gidofalvi,  J. Gomes,  J. Gonthier,  A. Gunina,  
 D. Hait,  M. W. D. Hanson-Heine,  P. H. P. Harbach,  A. W. Hauser,  
 J. E. Herr,  E. G. Hohenstein,  Z. C. Holden,  Kerwin Hui,  B. C. Huynh,  
 T.-C. Jagau,  Hyunjun Ji,  B. Kaduk,  K. Khistyaev,  Jaehoon Kim,  
 P. Klunzinger,  K. Koh,  D. Kosenkov,  L. Koulias,  T. Kowalczyk,  
 C. M. Krauter,  A. Kunitsa,  Ka Un Lao,  A. Laurent,  K. V. Lawler,  
 Joonho Lee,  D. Lefrancois,  S. Lehtola,  D. S. Levine,  Yi-Pei Li,  
 You-Sheng Lin,  Fenglai Liu,  E. Livshits,  A. Luenser,  P. Manohar,  
 E. Mansoor,  S. F. Manzer,  Shan-Ping Mao,  Yuezhi Mao,  N. Mardirossian,  
 A. V. Marenich,  T. Markovich,  L. A. Martinez-Martinez,  S. A. Maurer,  
 N. J. Mayhall,  S. C. McKenzie,  J.-M. Mewes,  A. F. Morrison,  
 J. W. Mullinax,  K. Nanda,  T. S. Nguyen-Beck,  R. Olivares-Amaya,  
 J. A. Parkhill,  T. M. Perrine,  F. Plasser,  P. Pokhilko,  S. Prager,  
 A. Prociuk,  E. Ramos,  D. R. Rehn,  F. Rob,  M. Schneider,  N. Sergueev,  
 S. M. Sharada,  S. Sharma,  D. W. Small,  T. Stauch,  T. Stein,  
 Yu-Chuan Su,  A. J. W. Thom,  A. Tkatchenko,  T. Tsuchimochi,  N. M. Tubman,  
 L. Vogt,  M. L. Vidal,  O. Vydrov,  M. A. Watson,  J. Wenzel,  
 M. de Wergifosse,  T. A. Wesolowski,  A. White,  J. Witte,  A. Yamada,  
 Jun Yang,  K. Yao,  S. Yeganeh,  S. R. Yost,  Zhi-Qiang You,  A. Zech,  
 Igor Ying Zhang,  Xing Zhang,  Yan Zhao,  Ying Zhu,  B. R. Brooks,  
 G. K. L. Chan,  C. J. Cramer,  M. S. Gordon,  W. J. Hehre,  A. Klamt,  
 M. W. Schmidt,  C. D. Sherrill,  D. G. Truhlar,  A. Aspuru-Guzik,  R. Baer,  
 A. T. Bell,  N. A. Besley,  Jeng-Da Chai,  A. E. DePrince, III,  
 R. A. DiStasio Jr.,  A. Dreuw,  B. D. Dunietz,  T. R. Furlani,  
 Chao-Ping Hsu,  Yousung Jung,  Jing Kong,  D. S. Lambrecht,  WanZhen Liang,  
 C. Ochsenfeld,  V. A. Rassolov,  L. V. Slipchenko,  J. E. Subotnik,  
 T. Van Voorhis,  J. M. Herbert,  A. I. Krylov,  P. M. W. Gill,  M. Head-Gordon

 Contributors to earlier versions of Q-Chem not listed above: 
 R. D. Adamson,  B. Austin,  J. Baker,  G. J. O. Beran,  K. Brandhorst,  
 S. T. Brown,  E. F. C. Byrd,  A. K. Chakraborty,  C.-L. Cheng,  
 Siu Hung Chien,  D. M. Chipman,  D. L. Crittenden,  H. Dachsel,  
 R. J. Doerksen,  A. D. Dutoi,  L. Fusti-Molnar,  W. A. Goddard III,  
 A. Golubeva-Zadorozhnaya,  S. R. Gwaltney,  G. Hawkins,  A. Heyden,  
 S. Hirata,  G. Kedziora,  F. J. Keil,  C. Kelley,  Jihan Kim,  R. A. King,  
 R. Z. Khaliullin,  P. P. Korambath,  W. Kurlancheek,  A. M. Lee,  M. S. Lee,  
 S. V. Levchenko,  Ching Yeh Lin,  D. Liotard,  R. C. Lochan,  I. Lotan,  
 P. E. Maslen,  N. Nair,  D. P. O'Neill,  D. Neuhauser,  E. Neuscamman,  
 C. M. Oana,  R. Olson,  B. Peters,  R. Peverati,  P. A. Pieniazek,  
 Y. M. Rhee,  J. Ritchie,  M. A. Rohrdanz,  E. Rosta,  N. J. Russ,  
 H. F. Schaefer III,  N. E. Schultz,  N. Shenvi,  A. C. Simmonett,  A. Sodt,  
 D. Stuck,  K. S. Thanthiriwatte,  V. Vanovschi,  Tao Wang,  A. Warshel,  
 C. F. Williams,  Q. Wu,  X. Xu,  W. Zhang

 Please cite Q-Chem as follows:
 Y. Shao et al., Mol. Phys. 113, 184-215 (2015)
 DOI: 10.1080/00268976.2014.952696

 Q-Chem 5.1.1 for Intel X86 EM64T Linux

 Parts of Q-Chem use Armadillo 8.300.2 (Tropical Shenanigans).
 http://arma.sourceforge.net/

 Q-Chem begins on Wed Oct 31 16:43:21 2018  

Host: cub-0-16.local
0

     Scratch files written to /scr/c295_lal/137119/qchem12163//
 Aug318 |scratch|qcdevops|jenkins|workspace|build_RNUM -1
Processing $rem in /usr/software/qchem_511/config/preferences.
 MEM_TOTAL  2000 
Input Ideriv = 2
Curr. Ideriv = -1
Max.  Ideriv = 2

Checking the input file for inconsistencies... 	...done.

--------------------------------------------------------------
User input:
--------------------------------------------------------------
$molecule
2 5
O          1.17432        0.06339       -0.58850
O          2.63198       -0.13022       -0.39996
Fe        -0.31133       -0.23885       -0.13061
N          1.55343       -3.08899       -0.92088
C          1.70601       -3.10946        0.48129
N          0.51322       -2.84968        1.16783
C         -0.52688       -2.55184        0.17668
C          0.16202       -2.83063       -1.07795
H         -1.57274       -2.82691        0.42957
H         -0.29819       -2.81263       -2.08543
H          2.66930       -3.27629        1.00916
H          0.36696       -2.90347        2.21634
H         -3.71003       -0.47781        2.97729
C         -2.86552       -0.11534        2.36399
H         -1.25041       -0.44769        3.79830
N         -1.52598       -0.30624        2.78716
C         -2.85708        0.50282        1.11014
C         -0.61646        0.26475        1.78732
H         -3.70888        0.76395        0.45647
N         -1.49147        0.75880        0.69123
H          0.12524        0.96442        2.23650
H         -2.84675       -1.70034       -2.26711
C         -2.63126       -0.62046       -2.37984
H         -0.55875       -0.49124       -2.87595
N         -1.21927       -0.09086       -2.12300
C         -3.42548        0.42184       -2.76658
C         -1.43307        1.40069       -2.51103
H         -4.49686        0.40214       -3.05658
N         -2.68464        1.73087       -2.85179
H         -0.55382        2.07574       -2.45943
$end

$rem
BASIS = STO-3G
METHOD  = B3LYP
JOBTYPE = OPT
MAX_SCF_CYCLES = 500
SCF_ALGORITHM = DIIS_GDM
$end
--------------------------------------------------------------
 ----------------------------------------------------------------
             Standard Nuclear Orientation (Angstroms)
    I     Atom           X                Y                Z
 ----------------------------------------------------------------
    1      O       0.8269333869     0.9720905855     1.5259887144
    2      O       2.0534917713     1.4273809036     2.2231759884
    3      Fe      0.1305254357     0.0000737761     0.4875439734
    4      N       2.7306621279     1.9113145085    -0.8584138993
    5      C       3.4391480134     0.7151151982    -0.6198026124
    6      N       2.7312162746    -0.4296039353    -1.0071287834
    7      C       1.4068150984    -0.0082907050    -1.4776090535
    8      C       1.5280899712     1.4447866447    -1.4614185617
    9      H       0.9224646475    -0.6204810148    -2.2675885861
   10      H       0.7673980425     2.1606344693    -1.8302584673
   11      H       4.4407734207     0.6591211581    -0.1422904965
   12      H       3.0971504654    -1.4244651014    -1.0085430196
   13      H      -0.8527205266    -4.1471628432    -1.2734108195
   14      C      -0.7121926151    -3.3063455729    -0.5705617922
   15      H       1.2272272128    -3.8863304548     0.2531798413
   16      N       0.5271184814    -3.1108133950     0.0895580788
   17      C      -1.5799004994    -2.2698881820    -0.2139500343
   18      C       0.4345149517    -1.9277589512     0.9525430181
   19      H      -2.6079077611    -2.0697026890    -0.5663183418
   20      N      -0.9266468125    -1.3748313564     0.7230851412
   21      H       0.7578822476    -2.1368342669     1.9980767457
   22      H      -1.7502472310     1.1123357521    -2.4028724878
   23      C      -2.2513889944     1.1354771633    -1.4161576276
   24      H      -1.0555705816     2.4081232908    -0.1879431520
   25      N      -1.4354866994     1.3993134597    -0.1493298732
   26      C      -3.5657553743     0.9987153424    -1.0690556974
   27      C      -2.5895347884     1.4315114454     0.8938074242
   28      H      -4.4396840481     0.8252683496    -1.7312550693
   29      N      -3.8099328491     1.1762991699     0.4069204324
   30      H      -2.3211167222     1.6401198006     1.9501548675
 ----------------------------------------------------------------
 Molecular Point Group                 C1    NOp =  1
 Largest Abelian Subgroup              C1    NOp =  1
 Nuclear Repulsion Energy =  1767.8238236233 hartrees
 There are       76 alpha and       72 beta electrons
 Requested basis set is STO-3G
 There are 51 shells and 115 basis functions

 Total QAlloc Memory Limit   2000 MB
 Mega-Array Size       188 MB
 MEM_STATIC part       192 MB
 A cutoff of  1.0D-12 yielded   1084 shell pairs
 There are      6271 function pairs (      6387 Cartesian)
 
 -------------------------------------------------------
 OpenMP Integral Computing Module                       
 Release: version 1.0, May 2013, Q-Chem Inc. Pittsburgh 
 -------------------------------------------------------
 Integral Job Info:
 Integral job number is                      11
 Integral operator is                         1
 short-range coefficients                     0
 long-range coefficients              100000000
 Omega coefficients                           0
 if combine SR and LR in K                    0
 Integral screening is                        0
 Integral computing path is                   2
 max size of driver memory is            800000
 size of driver memory is                593474
 size of scratch memory is             10861360
 max col of scratch BK array               1296
 max len of scratch array in speh3          155
 max len of scratch index in speh4           18
 max int batch size is                      520
 min int batch size is                       52
 fixed nKL is                                52
 max L of basis functions is                  2
 order of int derivative is                   0
 number of shells is                         51
 number of basis is                         116
 number of cartesian basis is               116
 number of contracted shell pairs          1084
 number of primitive shell pairs           5970
 maxK2 (contraction) of shell pair            9
 max number of K2 of shell pair               1
 max number of CS2 of shell pair            164
 max number of PS2 of shell pair            738
 mem total for path MDJ                  542126
 -------------------------------------------------------
 Smallest overlap matrix eigenvalue = 2.06E-01

 Scale SEOQF with 1.000000e-01/1.000000e-01/1.000000e-01

 Standard Electronic Orientation quadrupole field applied
 Nucleus-field energy     =     0.0000000301 hartrees
 Guess from superposition of atomic densities
 Warning:  Energy on first SCF cycle will be non-variational
 SAD guess density has 150.000000 electrons

 -----------------------------------------------------------------------
  General SCF calculation program by
  Eric Jon Sundstrom, Paul Horn, Yuezhi Mao, Dmitri Zuev, Alec White,
  David Stuck, Shaama M.S., Shane Yost, Joonho Lee, David Small,
  Daniel Levine, Susi Lehtola, Hugh Burton, Evgeny Epifanovsky
 -----------------------------------------------------------------------
 Exchange:     0.2000 Hartree-Fock + 0.0800 Slater + 0.7200 B88
 Correlation:  0.1900 VWN1RPA + 0.8100 LYP
 Using SG-1 standard quadrature grid
 using 12 threads for integral computing
 -------------------------------------------------------
 OpenMP Integral computing Module                
 Release: version 1.0, May 2013, Q-Chem Inc. Pittsburgh 
 -------------------------------------------------------
 -------------------------------------------------------
 OpenMP BLAS3 based DFT computing Module                
 Release: version 1.0, May 2013, Q-Chem Inc. Pittsburgh 
 -------------------------------------------------------
 A unrestricted SCF calculation will be
 performed using DIIS, GDM
 SCF converges when RMS gradient is below 1.0e-08
 ---------------------------------------
  Cycle       Energy         DIIS error
 ---------------------------------------
    1   -2067.6486103296      4.81e-02  
    2   -2067.4410416980      6.94e-03  Done DIIS. Switching to GDM
 ---------------------------------------
  Cycle       Energy        RMS Gradient
 ---------------------------------------
    1   -2067.4410416980      5.34e-01   Descent step
    2   -2067.6400788838      4.74e-01   Descent step
    3   -2067.5209737220      9.95e-01  Line search: overstep
    4   -2067.7632872868      2.73e-01   Descent step
    5   -2067.6342298000      9.68e-01  Line search: overstep
    6   -2067.8052491805      1.39e-01   Descent step
    7   -2067.6295001554      6.73e-01  Line search: overstep
    8   -2067.8248643169      2.79e-01   Descent step
    9   -2067.3528641701      1.54e+00  Line search: overstep
   10   -2067.8373319039      8.66e-02   Dog-leg BFGS step
   11   -2067.8301273849      5.49e-01  Line search: overstep
   12   -2067.8590849571      4.19e-01   Descent step
   13   -2067.1526126478      2.10e+00  Line search: overstep
   14   -2067.8739573945      7.19e-02   Dog-leg BFGS step
   15   -2067.9195601292      9.22e-02   Dog-leg BFGS step
   16   -2067.9338396830      6.25e-02   Normal BFGS step
   17   -2067.9490904847      5.35e-02   Normal BFGS step
   18   -2067.9516163305      5.06e-02   Normal BFGS step
   19   -2067.9556329251      9.86e-03   Normal BFGS step
   20   -2067.9566957739      8.26e-03   Normal BFGS step
   21   -2067.9568302821      6.41e-03   Normal BFGS step
   22   -2067.9570247392      4.13e-03   Normal BFGS step
   23   -2067.9570598264      1.01e-03   Normal BFGS step
   24   -2067.9570641089      1.56e-03   Normal BFGS step
   25   -2067.9570706386      9.60e-04   Normal BFGS step
   26   -2067.9570729704      8.72e-04   Normal BFGS step
   27   -2067.9570756572      7.93e-04   Normal BFGS step
   28   -2067.9570795771      7.45e-04   Normal BFGS step
   29   -2067.9570841819      7.78e-04   Normal BFGS step
   30   -2067.9570905746      6.73e-04   Normal BFGS step
   31   -2067.9570966018      4.39e-04   Normal BFGS step
   32   -2067.9570974357      5.55e-04   Normal BFGS step
   33   -2067.9570984988      8.82e-05   Normal BFGS step
   34   -2067.9570984577      1.81e-04  Line search: overstep
   35   -2067.9570985602      4.33e-05   Normal BFGS step
   36   -2067.9570985779      1.93e-05   Normal BFGS step
   37   -2067.9570985805      3.00e-05   Normal BFGS step
   38   -2067.9570985846      6.77e-06   Normal BFGS step
   39   -2067.9570985847      5.56e-06   Normal BFGS step
   40   -2067.9570985851      3.08e-06   Normal BFGS step
   41   -2067.9570985852      2.54e-06   Normal BFGS step
   42   -2067.9570985852      1.67e-06   Normal BFGS step
   43   -2067.9570985852      1.48e-06   Normal BFGS step
   44   -2067.9570985852      6.48e-07   Normal BFGS step
   45   -2067.9570985852      3.14e-07   Normal BFGS step
   46   -2067.9570985852      2.42e-07   Normal BFGS step
   47   -2067.9570985852      1.59e-07   Normal BFGS step
   48   -2067.9570985852      1.22e-07   Normal BFGS step
   49   -2067.9570985852      8.78e-08   Normal BFGS step
   50   -2067.9570985852      2.87e-08   Normal BFGS step
   51   -2067.9570985852      2.76e-08   Normal BFGS step
   52   -2067.9570985852      8.02e-09  Convergence criterion met
 ---------------------------------------
 SCF time:   CPU 319.69s  wall 27.00s 
<S^2> =          6.983106080
 SCF   energy in the final basis set =    -2067.9570985852
 Total energy in the final basis set =    -2067.9570985852
 
 --------------------------------------------------------------
 
                    Orbital Energies (a.u.)
 --------------------------------------------------------------
 
 Alpha MOs
 -- Occupied --
******* -30.166 -26.603 -26.601 -26.601 -19.275 -19.260 -14.594
-14.558 -14.539 -14.516 -14.448 -14.444 -10.412 -10.401 -10.397
-10.396 -10.367 -10.365 -10.359 -10.330 -10.321  -4.063  -2.866
 -2.865  -2.861  -1.312  -1.296  -1.259  -1.223  -1.187  -1.128
 -1.115  -1.081  -1.052  -1.014  -0.982  -0.918  -0.897  -0.877
 -0.855  -0.847  -0.837  -0.819  -0.814  -0.776  -0.770  -0.745
 -0.737  -0.726  -0.723  -0.719  -0.705  -0.698  -0.694  -0.682
 -0.674  -0.666  -0.664  -0.658  -0.655  -0.632  -0.620  -0.604
 -0.591  -0.573  -0.565  -0.546  -0.527  -0.524  -0.511  -0.499
 -0.490  -0.479  -0.476  -0.436
 -- Virtual --
 -0.325  -0.307  -0.277  -0.237  -0.230  -0.198  -0.184  -0.149
 -0.118  -0.085  -0.071  -0.057  -0.056  -0.041  -0.031  -0.008
  0.010   0.024   0.027   0.048   0.050   0.054   0.058   0.064
  0.091   0.096   0.108   0.118   0.134   0.160   0.181   0.184
  0.224   0.236   0.247   0.274   0.293   0.326   0.403
 
 Beta MOs
 -- Occupied --
******* -30.122 -26.566 -26.564 -26.561 -19.288 -19.260 -14.591
-14.558 -14.539 -14.515 -14.448 -14.444 -10.412 -10.399 -10.398
-10.395 -10.367 -10.364 -10.359 -10.330 -10.321  -3.833  -2.634
 -2.609  -2.603  -1.324  -1.290  -1.258  -1.223  -1.179  -1.128
 -1.117  -1.112  -1.047  -1.013  -0.981  -0.914  -0.890  -0.876
 -0.854  -0.843  -0.837  -0.818  -0.813  -0.775  -0.760  -0.739
 -0.723  -0.721  -0.716  -0.708  -0.698  -0.688  -0.672  -0.664
 -0.661  -0.659  -0.645  -0.641  -0.632  -0.613  -0.578  -0.560
 -0.554  -0.532  -0.523  -0.518  -0.491  -0.480  -0.479  -0.470
 -- Virtual --
 -0.380  -0.299  -0.280  -0.248  -0.244  -0.241  -0.234  -0.216
 -0.203  -0.192  -0.174  -0.148  -0.105  -0.066  -0.063  -0.054
 -0.053  -0.037  -0.025  -0.001   0.011   0.030   0.034   0.051
  0.053   0.057   0.063   0.071   0.097   0.102   0.110   0.125
  0.136   0.169   0.183   0.189   0.225   0.236   0.248   0.274
  0.293   0.330   0.403
 --------------------------------------------------------------
 
          Ground-State Mulliken Net Atomic Charges

     Atom                 Charge (a.u.)    Spin (a.u.)
  --------------------------------------------------------
      1 O                    -0.259381       0.027667
      2 O                     0.121590      -0.783511
      3 Fe                    0.950900       4.319128
      4 N                    -0.158130      -0.006581
      5 C                     0.140053       0.036784
      6 N                    -0.228111      -0.004120
      7 C                    -0.078085      -0.004311
      8 C                     0.026739       0.050515
      9 H                     0.147641       0.000836
     10 H                     0.138613      -0.002391
     11 H                     0.175730      -0.001844
     12 H                     0.282772       0.000193
     13 H                     0.184863       0.000233
     14 C                     0.058756       0.006105
     15 H                     0.307284      -0.009036
     16 N                    -0.206598       0.219924
     17 C                     0.044807       0.199143
     18 C                    -0.055300      -0.125257
     19 H                     0.174149      -0.008258
     20 N                    -0.320773       0.045521
     21 H                     0.175866       0.023240
     22 H                     0.132706       0.000027
     23 C                    -0.015333      -0.000690
     24 H                     0.263933       0.001357
     25 N                    -0.296854       0.007152
     26 C                     0.012171       0.005074
     27 C                     0.101135       0.004115
     28 H                     0.158837      -0.000080
     29 N                    -0.133287      -0.000755
     30 H                     0.153308      -0.000177
  --------------------------------------------------------
  Sum of atomic charges =     2.000000
  Sum of spin   charges =     4.000000

 -----------------------------------------------------------------
                    Cartesian Multipole Moments
 -----------------------------------------------------------------
    Charge (ESU x 10^10)
                 9.6064
    Dipole Moment (Debye)
         X       2.8855      Y      -7.9033      Z      -3.0429
       Tot       8.9469
    Quadrupole Moments (Debye-Ang)
        XX     -64.7068     XY     -12.0642     YY     -55.2891
        XZ       7.2270     YZ       1.7971     ZZ     -86.8548
    Octopole Moments (Debye-Ang^2)
       XXX      91.6216    XXY     -23.8847    XYY       2.1187
       YYY    -127.6393    XXZ     -28.8849    XYZ       1.5015
       YYZ      -2.3466    XZZ       2.4845    YZZ       1.3915
       ZZZ      21.9367
    Hexadecapole Moments (Debye-Ang^3)
      XXXX   -2236.4780   XXXY     -19.8838   XXYY    -666.8945
      XYYY     -98.3561   YYYY   -1101.0387   XXXZ     152.8551
      XXYZ      23.4975   XYYZ      43.0931   YYYZ      77.5175
      XXZZ    -505.9602   XYZZ     -16.2954   YYZZ    -351.2621
      XZZZ      47.8933   YZZZ      18.8239   ZZZZ    -688.7000
 -----------------------------------------------------------------
 Calculating analytic gradient of the SCF energy
 Gradient of SCF Energy
            1           2           3           4           5           6
    1  -0.0832797   0.0742777   0.0055929   0.0095601   0.0099706  -0.0021501
    2  -0.0430660   0.0288182  -0.0245277   0.0165005   0.0056814  -0.0118176
    3  -0.0614904   0.0425050   0.0308123   0.0066653   0.0072878  -0.0036114
            7           8           9          10          11          12
    1  -0.0041545  -0.0116136  -0.0027575  -0.0044236   0.0020890   0.0013296
    2  -0.0006713  -0.0026269  -0.0045467   0.0018134  -0.0007829  -0.0081317
    3  -0.0034631  -0.0054934  -0.0029723  -0.0002088   0.0026902  -0.0005292
           13          14          15          16          17          18
    1   0.0019188  -0.0214147  -0.0001908   0.0252770  -0.0103310   0.0178652
    2   0.0004394   0.0056255  -0.0009881  -0.0096521  -0.0215244   0.0237320
    3  -0.0009428  -0.0071355   0.0031776  -0.0074225  -0.0141260   0.0076577
           19          20          21          22          23          24
    1  -0.0021895   0.0030342  -0.0021402   0.0024751   0.0080442   0.0024082
    2  -0.0005811   0.0463010  -0.0052305  -0.0003765  -0.0001917   0.0099894
    3   0.0015403   0.0088284   0.0019928  -0.0066823  -0.0076459   0.0006373
           25          26          27          28          29          30
    1   0.0120490  -0.0102657   0.0076008  -0.0052995  -0.0256078   0.0023260
    2  -0.0022749  -0.0034093   0.0039368   0.0004107  -0.0024757  -0.0003732
    3  -0.0024684  -0.0010303   0.0071023  -0.0030966   0.0043368   0.0030851
 Max gradient component =       8.328E-02
 RMS gradient           =       1.830E-02
 Gradient time:  CPU 24.09 s  wall 2.10 s
 Geometry Optimization Parameters
   NAtoms,    NIC,     NZ,  NCons,   NDum,   NFix, NCnnct, MaxDiis
       30     263       0       0       0       0       0       0


** GEOMETRY OPTIMIZATION IN DELOCALIZED INTERNAL COORDINATES **
   Searching for a Minimum

   Optimization Cycle:   1

                       Coordinates (Angstroms)
     ATOM                X               Y               Z
      1  O         0.8269333869    0.9720905855    1.5259887144
      2  O         2.0534917713    1.4273809036    2.2231759884
      3  Fe        0.1305254357    0.0000737761    0.4875439734
      4  N         2.7306621279    1.9113145085   -0.8584138993
      5  C         3.4391480134    0.7151151982   -0.6198026124
      6  N         2.7312162746   -0.4296039353   -1.0071287834
      7  C         1.4068150984   -0.0082907050   -1.4776090535
      8  C         1.5280899712    1.4447866447   -1.4614185617
      9  H         0.9224646475   -0.6204810148   -2.2675885861
     10  H         0.7673980425    2.1606344693   -1.8302584673
     11  H         4.4407734207    0.6591211581   -0.1422904965
     12  H         3.0971504654   -1.4244651014   -1.0085430196
     13  H        -0.8527205266   -4.1471628432   -1.2734108195
     14  C        -0.7121926151   -3.3063455729   -0.5705617922
     15  H         1.2272272128   -3.8863304548    0.2531798413
     16  N         0.5271184814   -3.1108133950    0.0895580788
     17  C        -1.5799004994   -2.2698881820   -0.2139500343
     18  C         0.4345149517   -1.9277589512    0.9525430181
     19  H        -2.6079077611   -2.0697026890   -0.5663183418
     20  N        -0.9266468125   -1.3748313564    0.7230851412
     21  H         0.7578822476   -2.1368342669    1.9980767457
     22  H        -1.7502472310    1.1123357521   -2.4028724878
     23  C        -2.2513889944    1.1354771633   -1.4161576276
     24  H        -1.0555705816    2.4081232908   -0.1879431520
     25  N        -1.4354866994    1.3993134597   -0.1493298732
     26  C        -3.5657553743    0.9987153424   -1.0690556974
     27  C        -2.5895347884    1.4315114454    0.8938074242
     28  H        -4.4396840481    0.8252683496   -1.7312550693
     29  N        -3.8099328491    1.1762991699    0.4069204324
     30  H        -2.3211167222    1.6401198006    1.9501548675
   Point Group: c1    Number of degrees of freedom:    84


   Energy is  -2067.957098585


 Attempting to Generate Delocalized Internal Coordinates

 84 Hessian modes will be used to form the next step
  Hessian Eigenvalues:
     0.002000    0.002000    0.004494    0.007633    0.009633    0.009720
     0.010819    0.011495    0.012411    0.014072    0.014114    0.014431
     0.014696    0.015009    0.015149    0.017622    0.018893    0.020244
     0.020879    0.032673    0.035223    0.035503    0.043036    0.045062
     0.046635    0.048795    0.058700    0.070651    0.073299    0.074878
     0.091958    0.095490    0.095863    0.097346    0.124261    0.131231
     0.137817    0.141859    0.145349    0.155679    0.158780    0.159722
     0.159793    0.159822    0.159876    0.159898    0.159916    0.159972
     0.160022    0.170874    0.197475    0.227044    0.227617    0.235631
     0.250000    0.263807    0.266014    0.287345    0.309052    0.321604
     0.324903    0.325362    0.325884    0.326317    0.328383    0.329277
     0.331346    0.331502    0.334599    0.337850    0.342850    0.349767
     0.361557    0.364520    0.385195    0.388529    0.399214    0.401857
     0.418585    0.437702    0.444537    0.485245    0.544993    0.555354

 Minimum Search - Taking Simple RFO Step
 Searching for Lamda that Minimizes Along All modes
 Value Taken    Lamda =  -0.03973092
 Calculated Step too Large.  Step scaled by  0.764853
 Step Taken.  Stepsize is  0.300000

                             Maximum     Tolerance    Cnvgd?
         Gradient           0.050656      0.000300      NO
         Displacement       0.094041      0.001200      NO
         Energy change     *********      0.000001      NO


 New Cartesian Coordinates Obtained by Inverse Iteration

 Displacement from previous Coordinates is:  0.597146
 ----------------------------------------------------------------
             Standard Nuclear Orientation (Angstroms)
    I     Atom           X                Y                Z
 ----------------------------------------------------------------
    1      O       0.8079770501     0.9711360345     1.5664603696
    2      O       1.9516606524     1.3783490425     2.2371887047
    3      Fe      0.1184743424     0.0052569778     0.4916250114
    4      N       2.7416687516     1.9381189171    -0.9165917537
    5      C       3.4513824782     0.7539997382    -0.6826476933
    6      N       2.7356017565    -0.3836464786    -1.0200191898
    7      C       1.4087674016     0.0253746120    -1.4707824346
    8      C       1.5360312522     1.4731199397    -1.4743866651
    9      H       0.9230878669    -0.5809154037    -2.2554344078
   10      H       0.7852897420     2.1879076143    -1.8514603869
   11      H       4.4690369596     0.7073492201    -0.2478704554
   12      H       3.1083353897    -1.3677489238    -1.0222466241
   13      H      -0.8806106000    -4.1935992537    -1.2331574830
   14      C      -0.7335103741    -3.3427209204    -0.5439253761
   15      H       1.1670718106    -3.9258310533     0.3096979005
   16      N       0.4751987193    -3.1476092272     0.1312451587
   17      C      -1.5794218472    -2.2735413058    -0.2282824631
   18      C       0.3916862888    -1.9578896667     0.9603556265
   19      H      -2.5915292159    -2.0555690314    -0.6100062908
   20      N      -0.9464440071    -1.4008259153     0.7087257338
   21      H       0.7079506526    -2.1472180494     2.0091549586
   22      H      -1.6984886414     1.1257937852    -2.3680443447
   23      C      -2.2120927524     1.1399128189    -1.3963736159
   24      H      -1.0449235194     2.3930716462    -0.1597803377
   25      N      -1.4233349155     1.3943738938    -0.1293544238
   26      C      -3.5145495087     0.9902944566    -1.0684369966
   27      C      -2.5699735629     1.4151600901     0.8987768761
   28      H      -4.3730601613     0.8059617221    -1.7368008324
   29      N      -3.7669591674     1.1550921487     0.3962337643
   30      H      -2.3209967950     1.6220151213     1.9562635209
 ----------------------------------------------------------------
 Molecular Point Group                 C1    NOp =  1
 Largest Abelian Subgroup              C1    NOp =  1
 Nuclear Repulsion Energy =  1770.7821554700 hartrees
 There are       76 alpha and       72 beta electrons
 Applying Cartesian multipole field
    Component          Value
    ---------          -----
     (2,0,0)        1.00000E-11
     (0,2,0)        2.00000E-11
     (0,0,2)       -3.00000E-11
 Nucleus-field energy     =     0.0000000298 hartrees
 Requested basis set is STO-3G
 There are 51 shells and 115 basis functions
 A cutoff of  1.0D-12 yielded   1083 shell pairs
 There are      6264 function pairs (      6380 Cartesian)
 Smallest overlap matrix eigenvalue = 2.01E-01
 Guess MOs from SCF MO coefficient file

 -----------------------------------------------------------------------
  General SCF calculation program by
  Eric Jon Sundstrom, Paul Horn, Yuezhi Mao, Dmitri Zuev, Alec White,
  David Stuck, Shaama M.S., Shane Yost, Joonho Lee, David Small,
  Daniel Levine, Susi Lehtola, Hugh Burton, Evgeny Epifanovsky
 -----------------------------------------------------------------------
 Exchange:     0.2000 Hartree-Fock + 0.0800 Slater + 0.7200 B88
 Correlation:  0.1900 VWN1RPA + 0.8100 LYP
 Using SG-1 standard quadrature grid
 using 12 threads for integral computing
 -------------------------------------------------------
 OpenMP Integral computing Module                
 Release: version 1.0, May 2013, Q-Chem Inc. Pittsburgh 
 -------------------------------------------------------
 -------------------------------------------------------
 OpenMP BLAS3 based DFT computing Module                
 Release: version 1.0, May 2013, Q-Chem Inc. Pittsburgh 
 -------------------------------------------------------
 A unrestricted SCF calculation will be
 performed using DIIS, GDM
 SCF converges when RMS gradient is below 1.0e-08
 ---------------------------------------
  Cycle       Energy         DIIS error
 ---------------------------------------
    1   -2067.9709226251      6.50e-04  
    2   -2067.9783831359      1.93e-04  Done DIIS. Switching to GDM
 ---------------------------------------
  Cycle       Energy        RMS Gradient
 ---------------------------------------
    1   -2067.9783831359      6.01e-03   Normal BFGS step
    2   -2067.9781412777      1.17e-02  Line search: overstep
    3   -2067.9787617643      5.02e-03   Normal BFGS step
    4   -2067.9789100897      5.05e-03   Normal BFGS step
    5   -2067.9788957336      6.95e-03  Line search: overstep
    6   -2067.9789489650      1.81e-03   Normal BFGS step
    7   -2067.9789530194      2.75e-03   Normal BFGS step
    8   -2067.9789641913      1.12e-03   Normal BFGS step
    9   -2067.9789676894      1.32e-03   Normal BFGS step
   10   -2067.9789724117      1.21e-03   Normal BFGS step
   11   -2067.9789807359      1.09e-03   Normal BFGS step
   12   -2067.9789911763      1.87e-03   Normal BFGS step
   13   -2067.9790012933      9.78e-04   Normal BFGS step
   14   -2067.9790088654      7.41e-04   Normal BFGS step
   15   -2067.9790110287      7.46e-04   Normal BFGS step
   16   -2067.9790131275      1.50e-04   Normal BFGS step
   17   -2067.9790131888      1.97e-04   Normal BFGS step
   18   -2067.9790133227      7.71e-05   Normal BFGS step
   19   -2067.9790133287      4.75e-05   Normal BFGS step
   20   -2067.9790133453      2.64e-05   Normal BFGS step
   21   -2067.9790133458      1.92e-05   Normal BFGS step
   22   -2067.9790133472      5.57e-06   Normal BFGS step
   23   -2067.9790133472      4.86e-06   Normal BFGS step
   24   -2067.9790133473      1.22e-06   Normal BFGS step
   25   -2067.9790133474      1.45e-06   Normal BFGS step
   26   -2067.9790133474      3.84e-07   Normal BFGS step
   27   -2067.9790133474      5.91e-07   Normal BFGS step
   28   -2067.9790133474      2.54e-07   Normal BFGS step
   29   -2067.9790133474      3.65e-07   Normal BFGS step
   30   -2067.9790133474      1.33e-07   Normal BFGS step
   31   -2067.9790133474      1.29e-07   Normal BFGS step
   32   -2067.9790133474      3.16e-08   Normal BFGS step
   33   -2067.9790133474      4.71e-08   Normal BFGS step
   34   -2067.9790133474      1.63e-08   Normal BFGS step
   35   -2067.9790133474      9.97e-09  Convergence criterion met
 ---------------------------------------
 SCF time:   CPU 209.63s  wall 18.00s 
<S^2> =          6.977218353
 SCF   energy in the final basis set =    -2067.9790133474
 Total energy in the final basis set =    -2067.9790133474
 
 --------------------------------------------------------------
 
                    Orbital Energies (a.u.)
 --------------------------------------------------------------
 
 Alpha MOs
 -- Occupied --
******* -30.159 -26.596 -26.595 -26.594 -19.280 -19.272 -14.596
-14.562 -14.544 -14.519 -14.448 -14.446 -10.411 -10.399 -10.399
-10.398 -10.368 -10.366 -10.364 -10.334 -10.324  -4.061  -2.864
 -2.863  -2.857  -1.354  -1.305  -1.268  -1.237  -1.191  -1.134
 -1.123  -1.074  -1.052  -1.018  -0.991  -0.919  -0.899  -0.881
 -0.858  -0.849  -0.842  -0.825  -0.819  -0.785  -0.772  -0.747
 -0.739  -0.731  -0.727  -0.724  -0.704  -0.699  -0.696  -0.685
 -0.678  -0.672  -0.667  -0.665  -0.660  -0.637  -0.619  -0.610
 -0.596  -0.580  -0.572  -0.553  -0.537  -0.528  -0.516  -0.501
 -0.489  -0.485  -0.477  -0.425
 -- Virtual --
 -0.324  -0.297  -0.278  -0.236  -0.225  -0.191  -0.154  -0.147
 -0.115  -0.076  -0.057  -0.052  -0.048  -0.032  -0.019  -0.005
  0.015   0.031   0.035   0.053   0.057   0.061   0.068   0.073
  0.090   0.104   0.113   0.122   0.140   0.167   0.189   0.196
  0.236   0.245   0.258   0.288   0.300   0.333   0.419
 
 Beta MOs
 -- Occupied --
******* -30.115 -26.558 -26.557 -26.555 -19.284 -19.280 -14.593
-14.562 -14.544 -14.519 -14.448 -14.446 -10.411 -10.401 -10.398
-10.395 -10.368 -10.365 -10.363 -10.334 -10.324  -3.826  -2.625
 -2.603  -2.598  -1.369  -1.300  -1.268  -1.236  -1.185  -1.134
 -1.123  -1.101  -1.048  -1.016  -0.990  -0.915  -0.893  -0.881
 -0.857  -0.846  -0.842  -0.825  -0.818  -0.784  -0.764  -0.741
 -0.729  -0.724  -0.722  -0.719  -0.701  -0.692  -0.680  -0.672
 -0.667  -0.665  -0.655  -0.645  -0.640  -0.630  -0.584  -0.563
 -0.555  -0.533  -0.525  -0.508  -0.490  -0.485  -0.479  -0.456
 -- Virtual --
 -0.372  -0.296  -0.271  -0.244  -0.242  -0.239  -0.230  -0.212
 -0.200  -0.186  -0.148  -0.138  -0.105  -0.065  -0.050  -0.049
 -0.045  -0.030  -0.014   0.001   0.015   0.036   0.043   0.057
  0.059   0.065   0.069   0.079   0.104   0.105   0.116   0.128
  0.141   0.172   0.190   0.200   0.237   0.245   0.258   0.288
  0.301   0.337   0.419
 --------------------------------------------------------------
 
          Ground-State Mulliken Net Atomic Charges

     Atom                 Charge (a.u.)    Spin (a.u.)
  --------------------------------------------------------
      1 O                    -0.241158      -0.015422
      2 O                     0.099952      -0.729223
      3 Fe                    0.943859       4.387371
      4 N                    -0.162367      -0.005611
      5 C                     0.144798       0.035595
      6 N                    -0.230869      -0.003649
      7 C                    -0.081049      -0.003493
      8 C                     0.027919       0.045730
      9 H                     0.148563       0.000784
     10 H                     0.138985      -0.002173
     11 H                     0.177421      -0.001783
     12 H                     0.285744       0.000176
     13 H                     0.185497      -0.000181
     14 C                     0.061068       0.012471
     15 H                     0.308417      -0.007340
     16 N                    -0.209921       0.173869
     17 C                     0.041357       0.164349
     18 C                    -0.045219      -0.113239
     19 H                     0.171008      -0.006548
     20 N                    -0.313396       0.036292
     21 H                     0.175735       0.019377
     22 H                     0.133975       0.000044
     23 C                    -0.015071      -0.000927
     24 H                     0.268127       0.001377
     25 N                    -0.306545       0.003458
     26 C                     0.012639       0.005559
     27 C                     0.103318       0.004247
     28 H                     0.160088      -0.000108
     29 N                    -0.138265      -0.000830
     30 H                     0.155391      -0.000174
  --------------------------------------------------------
  Sum of atomic charges =     2.000000
  Sum of spin   charges =     4.000000

 -----------------------------------------------------------------
                    Cartesian Multipole Moments
 -----------------------------------------------------------------
    Charge (ESU x 10^10)
                 9.6064
    Dipole Moment (Debye)
         X       2.8038      Y      -7.9087      Z      -3.0940
       Tot       8.9432
    Quadrupole Moments (Debye-Ang)
        XX     -65.9454     XY     -11.9873     YY     -55.0490
        XZ       5.9590     YZ       1.2353     ZZ     -87.2402
    Octopole Moments (Debye-Ang^2)
       XXX      96.0103    XXY     -23.4762    XYY      -0.0727
       YYY    -131.8811    XXZ     -31.9242    XYZ      -0.2086
       YYZ      -0.6081    XZZ       1.3395    YZZ       0.6986
       ZZZ      20.7748
    Hexadecapole Moments (Debye-Ang^3)
      XXXX   -2207.6700   XXXY     -34.3719   XXYY    -672.5319
      XYYY    -111.8575   YYYY   -1100.2119   XXXZ     145.0363
      XXYZ      25.3096   XYYZ      48.1070   YYYZ      82.3571
      XXZZ    -506.0774   XYZZ     -24.2326   YYZZ    -357.5750
      XZZZ      53.6148   YZZZ      24.9796   ZZZZ    -703.8588
 -----------------------------------------------------------------
 Calculating analytic gradient of the SCF energy
 Gradient of SCF Energy
            1           2           3           4           5           6
    1  -0.0316837   0.0223393   0.0090001   0.0057197   0.0007336  -0.0013065
    2  -0.0194342   0.0085545  -0.0189551   0.0042290   0.0037071  -0.0037927
    3  -0.0292664   0.0130767   0.0274926   0.0043079   0.0019752  -0.0011369
            7           8           9          10          11          12
    1   0.0008216  -0.0052685  -0.0007430  -0.0007907   0.0000630  -0.0003677
    2   0.0002065  -0.0047895  -0.0011801  -0.0000433  -0.0004776  -0.0014511
    3  -0.0065289  -0.0014718   0.0002177   0.0001243   0.0008209  -0.0004831
           13          14          15          16          17          18
    1   0.0016060  -0.0098361  -0.0013434   0.0094289   0.0004025   0.0109310
    2   0.0002017   0.0045228  -0.0015161  -0.0010357  -0.0142775   0.0214489
    3  -0.0010764  -0.0000360   0.0029943  -0.0091054  -0.0066254   0.0022859
           19          20          21          22          23          24
    1  -0.0015193  -0.0016352  -0.0029343   0.0002083  -0.0017129  -0.0009704
    2  -0.0001949   0.0265082  -0.0053967  -0.0002965   0.0001027   0.0026238
    3   0.0017040   0.0046861   0.0002500  -0.0013635  -0.0020075   0.0006034
           25          26          27          28          29          30
    1   0.0025178   0.0024835   0.0005824  -0.0010455  -0.0066572   0.0009768
    2  -0.0000823  -0.0008073   0.0019485   0.0006880  -0.0002183  -0.0007927
    3  -0.0037888  -0.0018538   0.0010103  -0.0005362   0.0030072   0.0007235
 Max gradient component =       3.168E-02
 RMS gradient           =       8.436E-03
 Gradient time:  CPU 23.80 s  wall 2.04 s
 Geometry Optimization Parameters
   NAtoms,    NIC,     NZ,  NCons,   NDum,   NFix, NCnnct, MaxDiis
       30     263       0       0       0       0       0       0

 Cartesian Hessian Update
 Hessian Updated using BFGS Update


** GEOMETRY OPTIMIZATION IN DELOCALIZED INTERNAL COORDINATES **
   Searching for a Minimum

   Optimization Cycle:   2

                       Coordinates (Angstroms)
     ATOM                X               Y               Z
      1  O         0.8079770501    0.9711360345    1.5664603696
      2  O         1.9516606524    1.3783490425    2.2371887047
      3  Fe        0.1184743424    0.0052569778    0.4916250114
      4  N         2.7416687516    1.9381189171   -0.9165917537
      5  C         3.4513824782    0.7539997382   -0.6826476933
      6  N         2.7356017565   -0.3836464786   -1.0200191898
      7  C         1.4087674016    0.0253746120   -1.4707824346
      8  C         1.5360312522    1.4731199397   -1.4743866651
      9  H         0.9230878669   -0.5809154037   -2.2554344078
     10  H         0.7852897420    2.1879076143   -1.8514603869
     11  H         4.4690369596    0.7073492201   -0.2478704554
     12  H         3.1083353897   -1.3677489238   -1.0222466241
     13  H        -0.8806106000   -4.1935992537   -1.2331574830
     14  C        -0.7335103741   -3.3427209204   -0.5439253761
     15  H         1.1670718106   -3.9258310533    0.3096979005
     16  N         0.4751987193   -3.1476092272    0.1312451587
     17  C        -1.5794218472   -2.2735413058   -0.2282824631
     18  C         0.3916862888   -1.9578896667    0.9603556265
     19  H        -2.5915292159   -2.0555690314   -0.6100062908
     20  N        -0.9464440071   -1.4008259153    0.7087257338
     21  H         0.7079506526   -2.1472180494    2.0091549586
     22  H        -1.6984886414    1.1257937852   -2.3680443447
     23  C        -2.2120927524    1.1399128189   -1.3963736159
     24  H        -1.0449235194    2.3930716462   -0.1597803377
     25  N        -1.4233349155    1.3943738938   -0.1293544238
     26  C        -3.5145495087    0.9902944566   -1.0684369966
     27  C        -2.5699735629    1.4151600901    0.8987768761
     28  H        -4.3730601613    0.8059617221   -1.7368008324
     29  N        -3.7669591674    1.1550921487    0.3962337643
     30  H        -2.3209967950    1.6220151213    1.9562635209
   Point Group: c1    Number of degrees of freedom:    84


   Energy is  -2067.979013347

 Hessian Updated using BFGS Update

 84 Hessian modes will be used to form the next step
  Hessian Eigenvalues:
     0.002000    0.002002    0.004494    0.007633    0.009630    0.009721
     0.010817    0.011567    0.012415    0.014072    0.014118    0.014430
     0.014630    0.015056    0.015176    0.017488    0.018853    0.020119
     0.020881    0.032670    0.035230    0.035503    0.043005    0.045060
     0.046591    0.048781    0.058325    0.070732    0.072843    0.074836
     0.091128    0.093790    0.095676    0.096812    0.124103    0.131049
     0.137698    0.141837    0.143721    0.147737    0.155949    0.159677
     0.159799    0.159824    0.159895    0.159900    0.159924    0.159979
     0.159995    0.170603    0.197808    0.226304    0.227271    0.232243
     0.249979    0.260175    0.264393    0.287623    0.309290    0.321611
     0.324892    0.325337    0.325906    0.326343    0.328270    0.329258
     0.331260    0.331472    0.334093    0.334855    0.349729    0.354096
     0.361664    0.370020    0.386459    0.388530    0.398278    0.402341
     0.427454    0.437599    0.444303    0.491288    0.535714    0.581968

 Minimum Search - Taking Simple RFO Step
 Searching for Lamda that Minimizes Along All modes
 Value Taken    Lamda =  -0.01429008
 Calculated Step too Large.  Step scaled by  0.670623
 Step Taken.  Stepsize is  0.300000

                             Maximum     Tolerance    Cnvgd?
         Gradient           0.021849      0.000300      NO
         Displacement       0.080602      0.001200      NO
         Energy change     -0.021915      0.000001      NO


 New Cartesian Coordinates Obtained by Inverse Iteration

 Displacement from previous Coordinates is:  0.583641
 ----------------------------------------------------------------
             Standard Nuclear Orientation (Angstroms)
    I     Atom           X                Y                Z
 ----------------------------------------------------------------
    1      O       0.8039592489     0.9637694802     1.6010606994
    2      O       1.9158632040     1.3365628798     2.2707713261
    3      Fe      0.1102625664     0.0104405145     0.4872840658
    4      N       2.7573172761     1.9775585991    -0.9847019199
    5      C       3.4748249311     0.8012862838    -0.7399005221
    6      N       2.7500713729    -0.3398149178    -1.0213151085
    7      C       1.4131806802     0.0569081824    -1.4556243209
    8      C       1.5397306964     1.5074948575    -1.4871985720
    9      H       0.9262417726    -0.5516265925    -2.2364859653
   10      H       0.7876498246     2.2167877226    -1.8706233957
   11      H       4.5080657684     0.7687576367    -0.3433527134
   12      H       3.1306963871    -1.3195446374    -1.0162017989
   13      H      -0.9208538460    -4.2410269112    -1.2037333977
   14      C      -0.7632514665    -3.3828822052    -0.5267209344
   15      H       1.1059886648    -3.9872595734     0.3747746996
   16      N       0.4189061436    -3.2084344417     0.1865216294
   17      C      -1.5830214345    -2.2729294566    -0.2619504016
   18      C       0.3498914651    -1.9991714263     0.9726505993
   19      H      -2.5692804214    -2.0279219637    -0.6889943724
   20      N      -0.9617191595    -1.4239952476     0.6841696811
   21      H       0.6678187907    -2.1483063269     2.0270311901
   22      H      -1.6632931738     1.1348674071    -2.3472540906
   23      C      -2.1862090943     1.1419380455    -1.3823092331
   24      H      -1.0251379864     2.3886077163    -0.1390278862
   25      N      -1.4100566301     1.3949187093    -0.1128186918
   26      C      -3.4889836684     0.9757934007    -1.0651901144
   27      C      -2.5579004006     1.4039841397     0.9070928369
   28      H      -4.3395414780     0.7763467877    -1.7373228016
   29      N      -3.7445813680     1.1347792745     0.3939318911
   30      H      -2.3233126195     1.6172846128     1.9655634724
 ----------------------------------------------------------------
 Molecular Point Group                 C1    NOp =  1
 Largest Abelian Subgroup              C1    NOp =  1
 Nuclear Repulsion Energy =  1766.4927519025 hartrees
 There are       76 alpha and       72 beta electrons
 Applying Cartesian multipole field
    Component          Value
    ---------          -----
     (2,0,0)        1.00000E-11
     (0,2,0)        2.00000E-11
     (0,0,2)       -3.00000E-11
 Nucleus-field energy     =     0.0000000298 hartrees
 Requested basis set is STO-3G
 There are 51 shells and 115 basis functions
 A cutoff of  1.0D-12 yielded   1083 shell pairs
 There are      6270 function pairs (      6386 Cartesian)
 Smallest overlap matrix eigenvalue = 2.00E-01
 Guess MOs from SCF MO coefficient file

 -----------------------------------------------------------------------
  General SCF calculation program by
  Eric Jon Sundstrom, Paul Horn, Yuezhi Mao, Dmitri Zuev, Alec White,
  David Stuck, Shaama M.S., Shane Yost, Joonho Lee, David Small,
  Daniel Levine, Susi Lehtola, Hugh Burton, Evgeny Epifanovsky
 -----------------------------------------------------------------------
 Exchange:     0.2000 Hartree-Fock + 0.0800 Slater + 0.7200 B88
 Correlation:  0.1900 VWN1RPA + 0.8100 LYP
 Using SG-1 standard quadrature grid
 using 12 threads for integral computing
 -------------------------------------------------------
 OpenMP Integral computing Module                
 Release: version 1.0, May 2013, Q-Chem Inc. Pittsburgh 
 -------------------------------------------------------
 -------------------------------------------------------
 OpenMP BLAS3 based DFT computing Module                
 Release: version 1.0, May 2013, Q-Chem Inc. Pittsburgh 
 -------------------------------------------------------
 A unrestricted SCF calculation will be
 performed using DIIS, GDM
 SCF converges when RMS gradient is below 1.0e-08
 ---------------------------------------
  Cycle       Energy         DIIS error
 ---------------------------------------
    1   -2067.9780752859      6.14e-04  
    2   -2067.9856540652      2.19e-04  Done DIIS. Switching to GDM
 ---------------------------------------
  Cycle       Energy        RMS Gradient
 ---------------------------------------
    1   -2067.9856540652      8.24e-03   Normal BFGS step
    2   -2067.9850937381      1.65e-02  Line search: overstep
    3   -2067.9861196834      5.01e-03   Normal BFGS step
    4   -2067.9862100570      4.37e-03   Normal BFGS step
    5   -2067.9861898450      7.76e-03  Line search: overstep
    6   -2067.9862426671      9.62e-04   Normal BFGS step
    7   -2067.9862469692      1.02e-03   Normal BFGS step
    8   -2067.9862549102      1.02e-03   Normal BFGS step
    9   -2067.9862572896      1.01e-03   Normal BFGS step
   10   -2067.9862616996      9.86e-04   Normal BFGS step
   11   -2067.9862719404      8.49e-04   Normal BFGS step
   12   -2067.9862824662      1.17e-03   Normal BFGS step
   13   -2067.9862925451      1.56e-03   Normal BFGS step
   14   -2067.9862996362      7.41e-04   Normal BFGS step
   15   -2067.9863022419      6.28e-04   Normal BFGS step
   16   -2067.9863042942      2.35e-04   Normal BFGS step
   17   -2067.9863044264      2.89e-04   Normal BFGS step
   18   -2067.9863046804      7.29e-05   Normal BFGS step
   19   -2067.9863046937      7.33e-05   Normal BFGS step
   20   -2067.9863047116      1.90e-05   Normal BFGS step
   21   -2067.9863047125      2.15e-05   Normal BFGS step
   22   -2067.9863047138      6.39e-06   Normal BFGS step
   23   -2067.9863047139      5.50e-06   Normal BFGS step
   24   -2067.9863047141      2.20e-06   Normal BFGS step
   25   -2067.9863047141      2.09e-06   Normal BFGS step
   26   -2067.9863047141      1.00e-06   Normal BFGS step
   27   -2067.9863047141      1.32e-06   Normal BFGS step
   28   -2067.9863047141      3.68e-07   Normal BFGS step
   29   -2067.9863047141      7.85e-07   Normal BFGS step
   30   -2067.9863047141      1.18e-07   Normal BFGS step
   31   -2067.9863047141      8.26e-08   Normal BFGS step
   32   -2067.9863047141      4.02e-08   Normal BFGS step
   33   -2067.9863047141      3.57e-08   Normal BFGS step
   34   -2067.9863047141      1.35e-08   Normal BFGS step
  /scratch/qcdevops/jenkins/workspace/build_qchem_linux_distrib/tags/qc511/qchem/libgscf/libgscf/opt/gdm.C::WARNING energy changes are now smaller than effective accuracy.
  /scratch/qcdevops/jenkins/workspace/build_qchem_linux_distrib/tags/qc511/qchem/libgscf/libgscf/opt/gdm.C::        calculation will continue, but THRESH should be increased
  /scratch/qcdevops/jenkins/workspace/build_qchem_linux_distrib/tags/qc511/qchem/libgscf/libgscf/opt/gdm.C::        or SCF_CONVERGENCE decreased. 
  /scratch/qcdevops/jenkins/workspace/build_qchem_linux_distrib/tags/qc511/qchem/libgscf/libgscf/opt/gdm.C::        effective_thresh = 5.06e-09
   35   -2067.9863047141      1.07e-08   Normal BFGS step
   36   -2067.9863047141      3.55e-09  Convergence criterion met
 ---------------------------------------
 SCF time:   CPU 212.25s  wall 18.00s 
<S^2> =          6.985511903
 SCF   energy in the final basis set =    -2067.9863047141
 Total energy in the final basis set =    -2067.9863047141
 
 --------------------------------------------------------------
 
                    Orbital Energies (a.u.)
 --------------------------------------------------------------
 
 Alpha MOs
 -- Occupied --
******* -30.150 -26.587 -26.586 -26.584 -19.281 -19.267 -14.596
-14.563 -14.546 -14.521 -14.448 -14.447 -10.409 -10.401 -10.400
-10.394 -10.368 -10.366 -10.365 -10.336 -10.326  -4.055  -2.859
 -2.857  -2.851  -1.368  -1.306  -1.270  -1.241  -1.191  -1.136
 -1.126  -1.066  -1.050  -1.018  -0.993  -0.918  -0.898  -0.882
 -0.858  -0.849  -0.845  -0.828  -0.820  -0.788  -0.769  -0.747
 -0.735  -0.731  -0.726  -0.724  -0.703  -0.697  -0.692  -0.685
 -0.678  -0.672  -0.668  -0.666  -0.660  -0.640  -0.614  -0.611
 -0.596  -0.580  -0.573  -0.555  -0.538  -0.530  -0.517  -0.502
 -0.488  -0.486  -0.477  -0.417
 -- Virtual --
 -0.321  -0.289  -0.280  -0.237  -0.221  -0.189  -0.151  -0.145
 -0.109  -0.077  -0.051  -0.047  -0.045  -0.028  -0.009  -0.004
  0.015   0.033   0.042   0.053   0.058   0.063   0.072   0.078
  0.090   0.104   0.116   0.122   0.140   0.175   0.190   0.203
  0.240   0.245   0.262   0.291   0.299   0.337   0.420
 
 Beta MOs
 -- Occupied --
******* -30.105 -26.548 -26.547 -26.545 -19.282 -19.278 -14.594
-14.564 -14.545 -14.520 -14.448 -14.447 -10.409 -10.402 -10.400
-10.392 -10.368 -10.365 -10.365 -10.336 -10.326  -3.817  -2.612
 -2.595  -2.590  -1.385  -1.303  -1.270  -1.240  -1.186  -1.136
 -1.126  -1.090  -1.046  -1.016  -0.993  -0.915  -0.893  -0.882
 -0.857  -0.847  -0.844  -0.827  -0.820  -0.788  -0.763  -0.742
 -0.728  -0.725  -0.723  -0.719  -0.701  -0.693  -0.683  -0.675
 -0.670  -0.666  -0.658  -0.643  -0.642  -0.634  -0.586  -0.564
 -0.553  -0.534  -0.526  -0.497  -0.489  -0.487  -0.479  -0.443
 -- Virtual --
 -0.364  -0.293  -0.262  -0.242  -0.239  -0.233  -0.224  -0.207
 -0.198  -0.184  -0.147  -0.128  -0.100  -0.067  -0.048  -0.045
 -0.041  -0.027  -0.005   0.002   0.016   0.037   0.047   0.057
  0.060   0.067   0.073   0.083   0.104   0.106   0.118   0.128
  0.141   0.178   0.191   0.206   0.241   0.246   0.262   0.291
  0.300   0.340   0.420
 --------------------------------------------------------------
 
          Ground-State Mulliken Net Atomic Charges

     Atom                 Charge (a.u.)    Spin (a.u.)
  --------------------------------------------------------
      1 O                    -0.233152      -0.027848
      2 O                     0.087282      -0.698123
      3 Fe                    0.928892       4.449566
      4 N                    -0.162589      -0.007007
      5 C                     0.148583       0.037562
      6 N                    -0.230929      -0.004265
      7 C                    -0.084272      -0.004928
      8 C                     0.029940       0.045976
      9 H                     0.148508       0.000830
     10 H                     0.139129      -0.002194
     11 H                     0.178967      -0.001878
     12 H                     0.286997       0.000207
     13 H                     0.185017      -0.000196
     14 C                     0.062409       0.010845
     15 H                     0.309919      -0.005758
     16 N                    -0.211077       0.132179
     17 C                     0.037994       0.130945
     18 C                    -0.030221      -0.097528
     19 H                     0.168266      -0.004946
     20 N                    -0.306662       0.020328
     21 H                     0.175763       0.014577
     22 H                     0.133773       0.000068
     23 C                    -0.014377      -0.001326
     24 H                     0.269761       0.001405
     25 N                    -0.312649       0.001465
     26 C                     0.013326       0.006463
     27 C                     0.104134       0.004681
     28 H                     0.160651      -0.000149
     29 N                    -0.140112      -0.000767
     30 H                     0.156727      -0.000185
  --------------------------------------------------------
  Sum of atomic charges =     2.000000
  Sum of spin   charges =     4.000000

 -----------------------------------------------------------------
                    Cartesian Multipole Moments
 -----------------------------------------------------------------
    Charge (ESU x 10^10)
                 9.6064
    Dipole Moment (Debye)
         X       2.8215      Y      -7.9055      Z      -3.1345
       Tot       8.9600
    Quadrupole Moments (Debye-Ang)
        XX     -66.0370     XY     -11.6995     YY     -54.4499
        XZ       5.3046     YZ       0.7837     ZZ     -87.4557
    Octopole Moments (Debye-Ang^2)
       XXX     100.9235    XXY     -22.0373    XYY      -1.3451
       YYY    -136.8155    XXZ     -34.1182    XYZ      -1.6495
       YYZ       1.6821    XZZ       0.5241    YZZ       0.2842
       ZZZ      20.5030
    Hexadecapole Moments (Debye-Ang^3)
      XXXX   -2185.6452   XXXY     -48.0655   XXYY    -681.3703
      XYYY    -128.1488   YYYY   -1103.1351   XXXZ     141.1782
      XXYZ      29.0490   XYYZ      53.7720   YYYZ      87.0450
      XXZZ    -507.8936   XYZZ     -31.2529   YYZZ    -364.6700
      XZZZ      58.5648   YZZZ      32.1635   ZZZZ    -719.5664
 -----------------------------------------------------------------
 Calculating analytic gradient of the SCF energy
 Gradient of SCF Energy
            1           2           3           4           5           6
    1   0.0008191  -0.0070784   0.0081804   0.0031117  -0.0006783  -0.0010969
    2  -0.0024260  -0.0021232  -0.0177091  -0.0007166   0.0026979  -0.0016093
    3  -0.0053845  -0.0044744   0.0204506   0.0019020   0.0008698   0.0008653
            7           8           9          10          11          12
    1   0.0034729  -0.0042395  -0.0008565   0.0001294  -0.0001809  -0.0002411
    2  -0.0001930  -0.0023908  -0.0002709  -0.0000588  -0.0002869   0.0000386
    3  -0.0091804   0.0020742   0.0009455  -0.0004213   0.0001713  -0.0004542
           13          14          15          16          17          18
    1   0.0009470  -0.0029816  -0.0015059   0.0047396   0.0006859   0.0084844
    2   0.0004293   0.0006301  -0.0011324  -0.0002505  -0.0044044   0.0227943
    3  -0.0009000   0.0016651   0.0024273  -0.0082471  -0.0014703  -0.0002994
           19          20          21          22          23          24
    1  -0.0010030  -0.0067429  -0.0025752  -0.0000767  -0.0013236  -0.0007562
    2  -0.0000777   0.0112114  -0.0052740  -0.0002904   0.0007524   0.0007092
    3   0.0012686   0.0009772   0.0003238  -0.0000917   0.0001926   0.0003491
           25          26          27          28          29          30
    1   0.0008809   0.0010190  -0.0005250  -0.0002489  -0.0007161   0.0003563
    2  -0.0004157  -0.0004572   0.0006023   0.0003896   0.0004572  -0.0006254
    3  -0.0032953  -0.0012824  -0.0002254   0.0000129   0.0011388   0.0000926
 Max gradient component =       2.279E-02
 RMS gradient           =       4.739E-03
 Gradient time:  CPU 23.58 s  wall 2.01 s
 Geometry Optimization Parameters
   NAtoms,    NIC,     NZ,  NCons,   NDum,   NFix, NCnnct, MaxDiis
       30     263       0       0       0       0       0       0

 Cartesian Hessian Update
 Hessian Updated using BFGS Update


** GEOMETRY OPTIMIZATION IN DELOCALIZED INTERNAL COORDINATES **
   Searching for a Minimum

   Optimization Cycle:   3

                       Coordinates (Angstroms)
     ATOM                X               Y               Z
      1  O         0.8039592489    0.9637694802    1.6010606994
      2  O         1.9158632040    1.3365628798    2.2707713261
      3  Fe        0.1102625664    0.0104405145    0.4872840658
      4  N         2.7573172761    1.9775585991   -0.9847019199
      5  C         3.4748249311    0.8012862838   -0.7399005221
      6  N         2.7500713729   -0.3398149178   -1.0213151085
      7  C         1.4131806802    0.0569081824   -1.4556243209
      8  C         1.5397306964    1.5074948575   -1.4871985720
      9  H         0.9262417726   -0.5516265925   -2.2364859653
     10  H         0.7876498246    2.2167877226   -1.8706233957
     11  H         4.5080657684    0.7687576367   -0.3433527134
     12  H         3.1306963871   -1.3195446374   -1.0162017989
     13  H        -0.9208538460   -4.2410269112   -1.2037333977
     14  C        -0.7632514665   -3.3828822052   -0.5267209344
     15  H         1.1059886648   -3.9872595734    0.3747746996
     16  N         0.4189061436   -3.2084344417    0.1865216294
     17  C        -1.5830214345   -2.2729294566   -0.2619504016
     18  C         0.3498914651   -1.9991714263    0.9726505993
     19  H        -2.5692804214   -2.0279219637   -0.6889943724
     20  N        -0.9617191595   -1.4239952476    0.6841696811
     21  H         0.6678187907   -2.1483063269    2.0270311901
     22  H        -1.6632931738    1.1348674071   -2.3472540906
     23  C        -2.1862090943    1.1419380455   -1.3823092331
     24  H        -1.0251379864    2.3886077163   -0.1390278862
     25  N        -1.4100566301    1.3949187093   -0.1128186918
     26  C        -3.4889836684    0.9757934007   -1.0651901144
     27  C        -2.5579004006    1.4039841397    0.9070928369
     28  H        -4.3395414780    0.7763467877   -1.7373228016
     29  N        -3.7445813680    1.1347792745    0.3939318911
     30  H        -2.3233126195    1.6172846128    1.9655634724
   Point Group: c1    Number of degrees of freedom:    84


   Energy is  -2067.986304714

 Hessian Updated using BFGS Update

 84 Hessian modes will be used to form the next step
  Hessian Eigenvalues:
     0.001999    0.002003    0.004492    0.007646    0.009611    0.009701
     0.010820    0.011639    0.012418    0.013800    0.014076    0.014185
     0.014551    0.015036    0.015195    0.016227    0.018612    0.019657
     0.020881    0.032629    0.035198    0.035497    0.041695    0.044729
     0.045536    0.048501    0.055618    0.067733    0.071662    0.074879
     0.082634    0.093067    0.096103    0.096752    0.122462    0.126747
     0.132401    0.137935    0.141924    0.145836    0.156079    0.159741
     0.159799    0.159824    0.159896    0.159907    0.159930    0.159986
     0.160051    0.170592    0.197813    0.227179    0.227968    0.231075
     0.250013    0.261158    0.264465    0.287682    0.309059    0.321646
     0.324940    0.325505    0.326106    0.326397    0.328535    0.329591
     0.331294    0.331509    0.333820    0.338791    0.349783    0.360824
     0.362925    0.385464    0.388473    0.394540    0.401514    0.417855
     0.436891    0.443202    0.487538    0.516750    0.542172    0.663445

 Minimum Search - Taking Simple RFO Step
 Searching for Lamda that Minimizes Along All modes
 Value Taken    Lamda =  -0.01037268
 Calculated Step too Large.  Step scaled by  0.562595
 Step Taken.  Stepsize is  0.300000

                             Maximum     Tolerance    Cnvgd?
         Gradient           0.007664      0.000300      NO
         Displacement       0.094346      0.001200      NO
         Energy change     -0.007291      0.000001      NO


 New Cartesian Coordinates Obtained by Inverse Iteration

 Displacement from previous Coordinates is:  0.561697
 ----------------------------------------------------------------
             Standard Nuclear Orientation (Angstroms)
    I     Atom           X                Y                Z
 ----------------------------------------------------------------
    1      O       0.8015680341     0.9527231062     1.6275107045
    2      O       1.9086678590     1.2992494719     2.3119053639
    3      Fe      0.1029962543     0.0184608087     0.4758715230
    4      N       2.7741134643     2.0185243715    -1.0459203421
    5      C       3.4971751441     0.8481816622    -0.7883642848
    6      N       2.7665087756    -0.2955393813    -1.0215967471
    7      C       1.4193855940     0.0878942211    -1.4389605026
    8      C       1.5527259055     1.5397815817    -1.5100016676
    9      H       0.9363068713    -0.5253746850    -2.2177695371
   10      H       0.7992094907     2.2417695938    -1.9024124914
   11      H       4.5407822403     0.8271027636    -0.4198368138
   12      H       3.1531824680    -1.2719495105    -1.0062089461
   13      H      -0.9593357570    -4.2925095069    -1.1757316428
   14      C      -0.7916223197    -3.4256609427    -0.5127573541
   15      H       1.0422924794    -4.0528471047     0.4429161918
   16      N       0.3619591405    -3.2721955358     0.2419245692
   17      C      -1.5796518331    -2.2786200676    -0.3000501415
   18      C       0.3081403994    -2.0452945086     0.9841074938
   19      H      -2.5378234281    -2.0099069355    -0.7719667040
   20      N      -0.9697452006    -1.4446085137     0.6551648507
   21      H       0.6282189630    -2.1483143335     2.0425827592
   22      H      -1.6452764633     1.1475367226    -2.3319415587
   23      C      -2.1720164909     1.1463398592    -1.3702921007
   24      H      -1.0167389538     2.3910612404    -0.1234039434
   25      N      -1.4040385775     1.4003087464    -0.1001373030
   26      C      -3.4725256650     0.9646948990    -1.0565761278
   27      C      -2.5502265468     1.3987058410     0.9170545217
   28      H      -4.3175863058     0.7526646157    -1.7301296367
   29      N      -3.7294497254     1.1164592197     0.3993686912
   30      H      -2.3238697705     1.6165348512     1.9757770268
 ----------------------------------------------------------------
 Molecular Point Group                 C1    NOp =  1
 Largest Abelian Subgroup              C1    NOp =  1
 Nuclear Repulsion Energy =  1760.0300462053 hartrees
 There are       76 alpha and       72 beta electrons
 Applying Cartesian multipole field
    Component          Value
    ---------          -----
     (2,0,0)        1.00000E-11
     (0,2,0)        2.00000E-11
     (0,0,2)       -3.00000E-11
 Nucleus-field energy     =     0.0000000300 hartrees
 Requested basis set is STO-3G
 There are 51 shells and 115 basis functions
 A cutoff of  1.0D-12 yielded   1081 shell pairs
 There are      6262 function pairs (      6378 Cartesian)
 Smallest overlap matrix eigenvalue = 1.99E-01
 Guess MOs from SCF MO coefficient file

 -----------------------------------------------------------------------
  General SCF calculation program by
  Eric Jon Sundstrom, Paul Horn, Yuezhi Mao, Dmitri Zuev, Alec White,
  David Stuck, Shaama M.S., Shane Yost, Joonho Lee, David Small,
  Daniel Levine, Susi Lehtola, Hugh Burton, Evgeny Epifanovsky
 -----------------------------------------------------------------------
 Exchange:     0.2000 Hartree-Fock + 0.0800 Slater + 0.7200 B88
 Correlation:  0.1900 VWN1RPA + 0.8100 LYP
 Using SG-1 standard quadrature grid
 using 12 threads for integral computing
 -------------------------------------------------------
 OpenMP Integral computing Module                
 Release: version 1.0, May 2013, Q-Chem Inc. Pittsburgh 
 -------------------------------------------------------
 -------------------------------------------------------
 OpenMP BLAS3 based DFT computing Module                
 Release: version 1.0, May 2013, Q-Chem Inc. Pittsburgh 
 -------------------------------------------------------
 A unrestricted SCF calculation will be
 performed using DIIS, GDM
 SCF converges when RMS gradient is below 1.0e-08
 ---------------------------------------
  Cycle       Energy         DIIS error
 ---------------------------------------
    1   -2067.9838502363      5.79e-04  
    2   -2067.9907972715      2.31e-04  Done DIIS. Switching to GDM
 ---------------------------------------
  Cycle       Energy        RMS Gradient
 ---------------------------------------
    1   -2067.9907972715      1.10e-02   Normal BFGS step
    2   -2067.9901260692      2.10e-02  Line search: overstep
    3   -2067.9913372025      3.48e-03   Normal BFGS step
    4   -2067.9914261756      2.30e-03   Normal BFGS step
    5   -2067.9914255943      2.16e-03  Line search: overstep
    6   -2067.9914448322      9.44e-04   Normal BFGS step
    7   -2067.9914479628      1.85e-03   Normal BFGS step
    8   -2067.9914522242      9.12e-04   Normal BFGS step
    9   -2067.9914539200      9.05e-04   Normal BFGS step
   10   -2067.9914572784      8.50e-04   Normal BFGS step
   11   -2067.9914637921      6.92e-04   Normal BFGS step
   12   -2067.9914769181      1.47e-03   Normal BFGS step
   13   -2067.9914919735      7.74e-04   Normal BFGS step
   14   -2067.9915028403      7.62e-04   Normal BFGS step
   15   -2067.9915068947      4.92e-04   Normal BFGS step
   16   -2067.9915088828      1.92e-04   Normal BFGS step
   17   -2067.9915090942      1.82e-04   Normal BFGS step
   18   -2067.9915093129      6.24e-05   Normal BFGS step
   19   -2067.9915093305      6.63e-05   Normal BFGS step
   20   -2067.9915093498      2.59e-05   Normal BFGS step
   21   -2067.9915093516      1.53e-05   Normal BFGS step
   22   -2067.9915093534      8.86e-06   Normal BFGS step
   23   -2067.9915093536      6.97e-06   Normal BFGS step
   24   -2067.9915093538      3.17e-06   Normal BFGS step
   25   -2067.9915093538      2.08e-06   Normal BFGS step
   26   -2067.9915093539      1.26e-06   Normal BFGS step
   27   -2067.9915093539      7.91e-07   Normal BFGS step
   28   -2067.9915093539      8.01e-07   Normal BFGS step
   29   -2067.9915093539      5.47e-07   Normal BFGS step
   30   -2067.9915093539      4.64e-07   Normal BFGS step
   31   -2067.9915093539      1.95e-07   Normal BFGS step
   32   -2067.9915093539      5.03e-08   Normal BFGS step
   33   -2067.9915093539      6.88e-08   Normal BFGS step
   34   -2067.9915093539      1.30e-08   Normal BFGS step
   35   -2067.9915093539      1.71e-08   Normal BFGS step
   36   -2067.9915093539      4.37e-09  Convergence criterion met
 ---------------------------------------
 SCF time:   CPU 213.25s  wall 18.00s 
<S^2> =          6.994323868
 SCF   energy in the final basis set =    -2067.9915093539
 Total energy in the final basis set =    -2067.9915093539
 
 --------------------------------------------------------------
 
                    Orbital Energies (a.u.)
 --------------------------------------------------------------
 
 Alpha MOs
 -- Occupied --
******* -30.141 -26.579 -26.578 -26.575 -19.271 -19.258 -14.597
-14.564 -14.546 -14.522 -14.449 -14.447 -10.406 -10.403 -10.402
-10.390 -10.367 -10.366 -10.366 -10.337 -10.327  -4.050  -2.854
 -2.852  -2.845  -1.362  -1.308  -1.271  -1.243  -1.191  -1.138
 -1.128  -1.057  -1.047  -1.018  -0.994  -0.917  -0.897  -0.883
 -0.858  -0.849  -0.846  -0.829  -0.821  -0.790  -0.766  -0.747
 -0.731  -0.729  -0.725  -0.722  -0.702  -0.696  -0.687  -0.684
 -0.676  -0.672  -0.667  -0.662  -0.655  -0.641  -0.611  -0.609
 -0.593  -0.578  -0.571  -0.554  -0.536  -0.530  -0.515  -0.503
 -0.488  -0.486  -0.477  -0.410
 -- Virtual --
 -0.317  -0.283  -0.280  -0.237  -0.217  -0.188  -0.151  -0.146
 -0.106  -0.079  -0.049  -0.045  -0.042  -0.026  -0.003  -0.001
  0.015   0.034   0.045   0.053   0.058   0.064   0.077   0.082
  0.089   0.105   0.118   0.123   0.141   0.184   0.191   0.208
  0.242   0.247   0.264   0.293   0.297   0.341   0.421
 
 Beta MOs
 -- Occupied --
******* -30.096 -26.538 -26.538 -26.537 -19.272 -19.269 -14.595
-14.564 -14.546 -14.522 -14.449 -14.447 -10.406 -10.404 -10.402
-10.388 -10.367 -10.366 -10.365 -10.337 -10.327  -3.808  -2.601
 -2.586  -2.582  -1.378  -1.306  -1.271  -1.243  -1.188  -1.137
 -1.128  -1.081  -1.045  -1.016  -0.994  -0.915  -0.893  -0.883
 -0.857  -0.847  -0.845  -0.828  -0.820  -0.790  -0.761  -0.742
 -0.727  -0.725  -0.722  -0.714  -0.701  -0.693  -0.681  -0.675
 -0.671  -0.666  -0.656  -0.643  -0.638  -0.630  -0.587  -0.565
 -0.550  -0.534  -0.527  -0.489  -0.488  -0.487  -0.478  -0.434
 -- Virtual --
 -0.355  -0.292  -0.255  -0.241  -0.234  -0.227  -0.218  -0.203
 -0.197  -0.183  -0.147  -0.128  -0.095  -0.069  -0.046  -0.044
 -0.038  -0.024   0.000   0.003   0.016   0.039   0.049   0.057
  0.061   0.068   0.078   0.085   0.103   0.107   0.121   0.127
  0.142   0.185   0.192   0.211   0.242   0.247   0.264   0.294
  0.298   0.343   0.421
 --------------------------------------------------------------
 
          Ground-State Mulliken Net Atomic Charges

     Atom                 Charge (a.u.)    Spin (a.u.)
  --------------------------------------------------------
      1 O                    -0.233946      -0.020582
      2 O                     0.079519      -0.693039
      3 Fe                    0.914926       4.507755
      4 N                    -0.161909      -0.009289
      5 C                     0.152328       0.040243
      6 N                    -0.230639      -0.005451
      7 C                    -0.088944      -0.007710
      8 C                     0.033789       0.048168
      9 H                     0.148198       0.000896
     10 H                     0.139276      -0.002308
     11 H                     0.180226      -0.002000
     12 H                     0.287680       0.000261
     13 H                     0.184674       0.000004
     14 C                     0.062528       0.005826
     15 H                     0.311619      -0.004246
     16 N                    -0.211535       0.096456
     17 C                     0.035110       0.102497
     18 C                    -0.012646      -0.078941
     19 H                     0.165696      -0.003642
     20 N                    -0.301543       0.002400
     21 H                     0.176521       0.010129
     22 H                     0.133833       0.000088
     23 C                    -0.014191      -0.001692
     24 H                     0.271159       0.001385
     25 N                    -0.317245       0.001142
     26 C                     0.013648       0.007430
     27 C                     0.104720       0.005015
     28 H                     0.160687      -0.000185
     29 N                    -0.141363      -0.000413
     30 H                     0.157824      -0.000197
  --------------------------------------------------------
  Sum of atomic charges =     2.000000
  Sum of spin   charges =     4.000000

 -----------------------------------------------------------------
                    Cartesian Multipole Moments
 -----------------------------------------------------------------
    Charge (ESU x 10^10)
                 9.6064
    Dipole Moment (Debye)
         X       2.8795      Y      -7.9305      Z      -3.1797
       Tot       9.0164
    Quadrupole Moments (Debye-Ang)
        XX     -65.9036     XY     -11.3301     YY     -53.5434
        XZ       4.7960     YZ       0.2800     ZZ     -87.5647
    Octopole Moments (Debye-Ang^2)
       XXX     105.9198    XXY     -20.0036    XYY      -2.6749
       YYY    -142.7078    XXZ     -35.5595    XYZ      -2.8450
       YYZ       4.3010    XZZ       0.1080    YZZ       0.1883
       ZZZ      20.6562
    Hexadecapole Moments (Debye-Ang^3)
      XXXX   -2173.3745   XXXY     -60.2516   XXYY    -691.3485
      XYYY    -143.1165   YYYY   -1105.9812   XXXZ     139.2394
      XXYZ      32.8165   XYYZ      59.5294   YYYZ      90.5539
      XXZZ    -510.3609   XYZZ     -36.9428   YYZZ    -371.4113
      XZZZ      63.5340   YZZZ      39.8643   ZZZZ    -734.6657
 -----------------------------------------------------------------
 Calculating analytic gradient of the SCF energy
 Gradient of SCF Energy
            1           2           3           4           5           6
    1   0.0079000  -0.0110102   0.0062935   0.0012557  -0.0020087  -0.0019684
    2   0.0039377  -0.0032724  -0.0184324  -0.0034048   0.0027307   0.0006436
    3   0.0029103  -0.0071013   0.0141495   0.0018742  -0.0003932   0.0012413
            7           8           9          10          11          12
    1   0.0047003  -0.0013228  -0.0010093   0.0010774  -0.0004376  -0.0001777
    2  -0.0005248  -0.0021296   0.0002816  -0.0003341  -0.0000801   0.0010202
    3  -0.0101510   0.0033954   0.0017235  -0.0008107  -0.0002227  -0.0006651
           13          14          15          16          17          18
    1   0.0003890   0.0022579  -0.0014683   0.0005549   0.0019829   0.0063998
    2   0.0003778  -0.0021258  -0.0007342   0.0001825   0.0022232   0.0240100
    3  -0.0008119   0.0034905   0.0017420  -0.0080447   0.0024070  -0.0032599
           19          20          21          22          23          24
    1  -0.0005554  -0.0101140  -0.0028994  -0.0002919  -0.0015695  -0.0008907
    2  -0.0001837   0.0013817  -0.0053133  -0.0003108   0.0009059  -0.0007323
    3   0.0008418  -0.0005043   0.0005094   0.0007323   0.0011748   0.0002085
           25          26          27          28          29          30
    1  -0.0005900   0.0014788  -0.0015066   0.0004563   0.0031936  -0.0001198
    2  -0.0008498   0.0002260   0.0001067   0.0002567   0.0006722  -0.0005285
    3  -0.0033040  -0.0006047  -0.0009052   0.0004102   0.0002626  -0.0002945
 Max gradient component =       2.401E-02
 RMS gradient           =       4.653E-03
 Gradient time:  CPU 23.64 s  wall 2.02 s
 Geometry Optimization Parameters
   NAtoms,    NIC,     NZ,  NCons,   NDum,   NFix, NCnnct, MaxDiis
       30     263       0       0       0       0       0       0

 Cartesian Hessian Update
 Hessian Updated using BFGS Update


** GEOMETRY OPTIMIZATION IN DELOCALIZED INTERNAL COORDINATES **
   Searching for a Minimum

   Optimization Cycle:   4

                       Coordinates (Angstroms)
     ATOM                X               Y               Z
      1  O         0.8015680341    0.9527231062    1.6275107045
      2  O         1.9086678590    1.2992494719    2.3119053639
      3  Fe        0.1029962543    0.0184608087    0.4758715230
      4  N         2.7741134643    2.0185243715   -1.0459203421
      5  C         3.4971751441    0.8481816622   -0.7883642848
      6  N         2.7665087756   -0.2955393813   -1.0215967471
      7  C         1.4193855940    0.0878942211   -1.4389605026
      8  C         1.5527259055    1.5397815817   -1.5100016676
      9  H         0.9363068713   -0.5253746850   -2.2177695371
     10  H         0.7992094907    2.2417695938   -1.9024124914
     11  H         4.5407822403    0.8271027636   -0.4198368138
     12  H         3.1531824680   -1.2719495105   -1.0062089461
     13  H        -0.9593357570   -4.2925095069   -1.1757316428
     14  C        -0.7916223197   -3.4256609427   -0.5127573541
     15  H         1.0422924794   -4.0528471047    0.4429161918
     16  N         0.3619591405   -3.2721955358    0.2419245692
     17  C        -1.5796518331   -2.2786200676   -0.3000501415
     18  C         0.3081403994   -2.0452945086    0.9841074938
     19  H        -2.5378234281   -2.0099069355   -0.7719667040
     20  N        -0.9697452006   -1.4446085137    0.6551648507
     21  H         0.6282189630   -2.1483143335    2.0425827592
     22  H        -1.6452764633    1.1475367226   -2.3319415587
     23  C        -2.1720164909    1.1463398592   -1.3702921007
     24  H        -1.0167389538    2.3910612404   -0.1234039434
     25  N        -1.4040385775    1.4003087464   -0.1001373030
[...]

 ----------------------------------------------------------------
             Standard Nuclear Orientation (Angstroms)
    I     Atom           X                Y                Z
 ----------------------------------------------------------------
    1      O       1.0275048486     0.6445237820     1.6459094121
    2      O       1.5432170704     1.0011928532     2.8581441146
    3      Fe      0.3622234915     0.2023398381     0.2221484904
    4      N       2.9258519515     2.5125283314    -1.5709374163
    5      C       3.7240982107     1.3916531941    -1.2011882007
    6      N       3.0247255085     0.2210878367    -1.1726084265
    7      C       1.5946110041     0.4924060977    -1.4865799367
    8      C       1.6919277401     1.9499357745    -1.7942316046
    9      H       1.2311880807    -0.1486548565    -2.3180240763
   10      H       0.8605312733     2.5760237531    -2.1656403068
   11      H       4.8051905553     1.4603856578    -0.9573835840
   12      H       3.4495145252    -0.7249407503    -0.9840647396
   13      H      -1.8477373372    -4.4282703622    -0.8326753388
   14      C      -1.3159840421    -3.5925513366    -0.3537074472
   15      H      -0.7992945510    -4.5547893962     1.5619727444
   16      N      -0.7603589897    -3.7024094803     0.9456455577
   17      C      -1.0351272573    -2.3140850806    -0.7813006516
   18      C      -0.1588294726    -2.5099396363     1.2799910359
   19      H      -1.2985377270    -1.8368286626    -1.7323319530
   20      N      -0.3049054501    -1.6117546619     0.2362963659
   21      H       0.3556778337    -2.3240159273     2.2372164344
   22      H      -1.7183016231     1.3272449878    -2.2731098512
   23      C      -2.1518425846     1.1056345338    -1.2890192859
   24      H      -1.1322891171     2.4212883990     0.0217422225
   25      N      -1.3501011035     1.3809638282    -0.0419607129
   26      C      -3.3594466491     0.6189818897    -0.9204099367
   27      C      -2.3889124952     1.0507120646     1.0325710692
   28      H      -4.1929793749     0.2933012075    -1.5638880580
   29      N      -3.5265571395     0.5754440130     0.5552583491
   30      H      -2.1317311336     1.2277646589     2.0922915814
 ----------------------------------------------------------------
 Molecular Point Group                 C1    NOp =  1
 Largest Abelian Subgroup              C1    NOp =  1
 Nuclear Repulsion Energy =  1705.7802791884 hartrees
 There are       76 alpha and       72 beta electrons
 Applying Cartesian multipole field
    Component          Value
    ---------          -----
     (2,0,0)        1.00000E-11
     (0,2,0)        2.00000E-11
     (0,0,2)       -3.00000E-11
 Nucleus-field energy     =     0.0000000282 hartrees
 Requested basis set is STO-3G
 There are 51 shells and 115 basis functions
 A cutoff of  1.0D-12 yielded   1045 shell pairs
 There are      6108 function pairs (      6223 Cartesian)
 Smallest overlap matrix eigenvalue = 2.01E-01
 Guess MOs from SCF MO coefficient file

 -----------------------------------------------------------------------
  General SCF calculation program by
  Eric Jon Sundstrom, Paul Horn, Yuezhi Mao, Dmitri Zuev, Alec White,
  David Stuck, Shaama M.S., Shane Yost, Joonho Lee, David Small,
  Daniel Levine, Susi Lehtola, Hugh Burton, Evgeny Epifanovsky
 -----------------------------------------------------------------------
 Exchange:     0.2000 Hartree-Fock + 0.0800 Slater + 0.7200 B88
 Correlation:  0.1900 VWN1RPA + 0.8100 LYP
 Using SG-1 standard quadrature grid
 using 12 threads for integral computing
 -------------------------------------------------------
 OpenMP Integral computing Module                
 Release: version 1.0, May 2013, Q-Chem Inc. Pittsburgh 
 -------------------------------------------------------
 -------------------------------------------------------
 OpenMP BLAS3 based DFT computing Module                
 Release: version 1.0, May 2013, Q-Chem Inc. Pittsburgh 
 -------------------------------------------------------
 A unrestricted SCF calculation will be
 performed using DIIS, GDM
 SCF converges when RMS gradient is below 1.0e-08
 ---------------------------------------
  Cycle       Energy         DIIS error
 ---------------------------------------
    1   -2068.0539297709      3.57e-05  
    2   -2068.0539588893      6.96e-06  Done DIIS. Switching to GDM
 ---------------------------------------
  Cycle       Energy        RMS Gradient
 ---------------------------------------
    1   -2068.0539588893      2.00e-04   Normal BFGS step
    2   -2068.0539588057      4.47e-04   Normal BFGS step
    3   -2068.0539596099      6.31e-05   Normal BFGS step
    4   -2068.0539596028      6.32e-05   Normal BFGS step
    5   -2068.0539596466      1.59e-05   Normal BFGS step
    6   -2068.0539596459      1.79e-05   Normal BFGS step
    7   -2068.0539596484      5.83e-06   Normal BFGS step
    8   -2068.0539596483      5.30e-06   Normal BFGS step
    9   -2068.0539596485      4.97e-06   Normal BFGS step
   10   -2068.0539596485      5.51e-06   Normal BFGS step
   11   -2068.0539596486      5.33e-06   Normal BFGS step
   12   -2068.0539596489      4.66e-06   Normal BFGS step
   13   -2068.0539596493      4.50e-06   Normal BFGS step
   14   -2068.0539596497      4.07e-06   Normal BFGS step
   15   -2068.0539596501      6.46e-06   Normal BFGS step
   16   -2068.0539596502      2.49e-06   Normal BFGS step
   17   -2068.0539596503      2.23e-06   Normal BFGS step
   18   -2068.0539596503      8.47e-07   Normal BFGS step
   19   -2068.0539596503      7.83e-07   Normal BFGS step
   20   -2068.0539596503      1.75e-07   Normal BFGS step
   21   -2068.0539596503      1.54e-07   Normal BFGS step
   22   -2068.0539596503      3.72e-08   Normal BFGS step
   23   -2068.0539596503      5.06e-08   Normal BFGS step
   24   -2068.0539596503      2.89e-08   Normal BFGS step
   25   -2068.0539596503      1.65e-08   Normal BFGS step
   26   -2068.0539596503      9.70e-09  Convergence criterion met
 ---------------------------------------
 SCF time:   CPU 148.55s  wall 13.00s 
<S^2> =          6.912807493
 SCF   energy in the final basis set =    -2068.0539596503
 Total energy in the final basis set =    -2068.0539596503
 
 --------------------------------------------------------------
 
                    Orbital Energies (a.u.)
 --------------------------------------------------------------
 
 Alpha MOs
 -- Occupied --
******* -30.113 -26.549 -26.549 -26.548 -19.227 -19.209 -14.570
-14.566 -14.549 -14.501 -14.458 -14.450 -10.417 -10.411 -10.371
-10.369 -10.358 -10.353 -10.343 -10.339 -10.330  -4.028  -2.830
 -2.829  -2.828  -1.311  -1.277  -1.272  -1.246  -1.150  -1.142
 -1.131  -1.028  -1.016  -1.014  -0.996  -0.890  -0.887  -0.862
 -0.856  -0.850  -0.831  -0.827  -0.819  -0.794  -0.746  -0.729
 -0.720  -0.699  -0.697  -0.695  -0.691  -0.689  -0.683  -0.676
 -0.674  -0.672  -0.668  -0.646  -0.638  -0.630  -0.604  -0.586
 -0.573  -0.570  -0.537  -0.536  -0.527  -0.515  -0.498  -0.493
 -0.489  -0.484  -0.481  -0.377
 -- Virtual --
 -0.297  -0.252  -0.241  -0.232  -0.194  -0.172  -0.154  -0.152
 -0.113  -0.067  -0.055  -0.042  -0.025  -0.005  -0.004   0.004
  0.027   0.035   0.044   0.047   0.056   0.058   0.085   0.088
  0.105   0.118   0.139   0.142   0.151   0.184   0.221   0.240
  0.248   0.251   0.276   0.286   0.288   0.404   0.415
 
 Beta MOs
 -- Occupied --
******* -30.065 -26.508 -26.507 -26.507 -19.228 -19.222 -14.570
-14.566 -14.548 -14.502 -14.458 -14.450 -10.417 -10.411 -10.370
-10.369 -10.358 -10.353 -10.343 -10.339 -10.329  -3.775  -2.563
 -2.554  -2.553  -1.330  -1.276  -1.271  -1.245  -1.149  -1.141
 -1.130  -1.056  -1.015  -1.014  -0.996  -0.889  -0.887  -0.861
 -0.855  -0.850  -0.830  -0.827  -0.818  -0.793  -0.741  -0.727
 -0.713  -0.697  -0.695  -0.690  -0.688  -0.686  -0.676  -0.674
 -0.668  -0.665  -0.652  -0.643  -0.629  -0.598  -0.569  -0.558
 -0.550  -0.536  -0.493  -0.492  -0.488  -0.483  -0.461  -0.408
 -- Virtual --
 -0.298  -0.256  -0.247  -0.239  -0.212  -0.192  -0.189  -0.187
 -0.180  -0.165  -0.148  -0.143  -0.096  -0.059  -0.048  -0.042
 -0.017  -0.003  -0.001   0.007   0.030   0.039   0.048   0.052
  0.058   0.062   0.087   0.104   0.112   0.118   0.140   0.143
  0.153   0.185   0.222   0.241   0.248   0.251   0.277   0.287
  0.289   0.404   0.415
 --------------------------------------------------------------
 
          Ground-State Mulliken Net Atomic Charges

     Atom                 Charge (a.u.)    Spin (a.u.)
  --------------------------------------------------------
      1 O                    -0.274088      -0.027783
      2 O                     0.053041      -0.780452
      3 Fe                    0.911128       4.746252
      4 N                    -0.149563      -0.004501
      5 C                     0.172511       0.035102
      6 N                    -0.217953       0.004258
      7 C                    -0.132124      -0.047711
      8 C                     0.054514       0.041130
      9 H                     0.152518       0.005477
     10 H                     0.143659      -0.001826
     11 H                     0.189573      -0.001624
     12 H                     0.296610       0.000009
     13 H                     0.169947       0.000487
     14 C                     0.038084      -0.003006
     15 H                     0.313829       0.000080
     16 N                    -0.218730       0.005498
     17 C                     0.004834       0.014438
     18 C                     0.145399       0.023883
     19 H                     0.130508      -0.000444
     20 N                    -0.317776      -0.030519
     21 H                     0.165529      -0.000889
     22 H                     0.136927       0.000075
     23 C                    -0.013602      -0.002470
     24 H                     0.275217       0.001742
     25 N                    -0.322044       0.002175
     26 C                     0.015801       0.012479
     27 C                     0.099543       0.006992
     28 H                     0.161197      -0.000353
     29 N                    -0.141866       0.001886
     30 H                     0.157377      -0.000383
  --------------------------------------------------------
  Sum of atomic charges =     2.000000
  Sum of spin   charges =     4.000000

 -----------------------------------------------------------------
                    Cartesian Multipole Moments
 -----------------------------------------------------------------
    Charge (ESU x 10^10)
                 9.6064
    Dipole Moment (Debye)
         X       2.5597      Y      -5.6800      Z      -2.5716
       Tot       6.7400
    Quadrupole Moments (Debye-Ang)
        XX     -59.8527     XY       3.9028     YY     -50.4317
        XZ      -2.8146     YZ     -11.1126     ZZ     -82.6463
    Octopole Moments (Debye-Ang^2)
       XXX     129.5780    XXY       5.5192    XYY     -60.5910
       YYY    -170.0124    XXZ     -45.3877    XYZ       1.1115
       YYZ      53.9565    XZZ      -6.6138    YZZ     -14.8531
       ZZZ      36.7615
    Hexadecapole Moments (Debye-Ang^3)
      XXXX   -1997.4247   XXXY    -243.1818   XXYY    -720.8677
      XYYY    -166.1768   YYYY   -1207.5673   XXXZ     147.7719
      XXYZ      74.1813   XYYZ      62.3597   YYYZ      28.1245
      XXZZ    -550.7922   XYZZ    -105.3389   YYZZ    -399.5084
      XZZZ     156.8062   YZZZ     131.8376   ZZZZ    -931.9044
 -----------------------------------------------------------------
 Calculating analytic gradient of the SCF energy
 Gradient of SCF Energy
            1           2           3           4           5           6
    1  -0.0002750  -0.0000495  -0.0002158  -0.0001208   0.0000545  -0.0000393
    2   0.0001466  -0.0000018   0.0000275   0.0004393  -0.0001771  -0.0002194
    3  -0.0000843   0.0003466   0.0000264   0.0000392  -0.0001188  -0.0000074
            7           8           9          10          11          12
    1  -0.0005072   0.0001645  -0.0000615  -0.0000173   0.0003070   0.0004554
    2  -0.0000719   0.0000837  -0.0001089  -0.0000593   0.0000617  -0.0001896
    3   0.0001289  -0.0002453  -0.0003703  -0.0000022   0.0000354   0.0002666
           13          14          15          16          17          18
    1  -0.0000327   0.0001850   0.0000158  -0.0001457  -0.0000867   0.0000985
    2  -0.0002605  -0.0001645   0.0000041   0.0003323  -0.0000130   0.0000218
    3  -0.0001295  -0.0000877   0.0000099   0.0004227   0.0001194  -0.0002968
           19          20          21          22          23          24
    1  -0.0000389   0.0003389   0.0000515  -0.0000819  -0.0000186  -0.0001433
    2   0.0001707  -0.0004540  -0.0000160   0.0001813   0.0001083   0.0001954
    3   0.0001648   0.0001296  -0.0004834  -0.0000593  -0.0000149   0.0001388
           25          26          27          28          29          30
    1   0.0003534   0.0001733  -0.0000701  -0.0001329  -0.0002354   0.0000749
    2  -0.0000300  -0.0001907  -0.0000922  -0.0001254   0.0003484   0.0000530
    3  -0.0000335  -0.0001302   0.0001152   0.0000218   0.0000631   0.0000351
 Max gradient component =       5.072E-04
 RMS gradient           =       1.926E-04
 Gradient time:  CPU 22.67 s  wall 1.94 s
 Geometry Optimization Parameters
   NAtoms,    NIC,     NZ,  NCons,   NDum,   NFix, NCnnct, MaxDiis
       30     263       0       0       0       0       0       0

 Cartesian Hessian Update
 Hessian Updated using BFGS Update


** GEOMETRY OPTIMIZATION IN CARTESIAN COORDINATES **
   Searching for a Minimum

   Optimization Cycle:  50

                       Coordinates (Angstroms)
     ATOM                X               Y               Z
      1  O         1.0275048486    0.6445237820    1.6459094121
      2  O         1.5432170704    1.0011928532    2.8581441146
      3  Fe        0.3622234915    0.2023398381    0.2221484904
      4  N         2.9258519515    2.5125283314   -1.5709374163
      5  C         3.7240982107    1.3916531941   -1.2011882007
      6  N         3.0247255085    0.2210878367   -1.1726084265
      7  C         1.5946110041    0.4924060977   -1.4865799367
      8  C         1.6919277401    1.9499357745   -1.7942316046
      9  H         1.2311880807   -0.1486548565   -2.3180240763
     10  H         0.8605312733    2.5760237531   -2.1656403068
     11  H         4.8051905553    1.4603856578   -0.9573835840
     12  H         3.4495145252   -0.7249407503   -0.9840647396
     13  H        -1.8477373372   -4.4282703622   -0.8326753388
     14  C        -1.3159840421   -3.5925513366   -0.3537074472
     15  H        -0.7992945510   -4.5547893962    1.5619727444
     16  N        -0.7603589897   -3.7024094803    0.9456455577
     17  C        -1.0351272573   -2.3140850806   -0.7813006516
     18  C        -0.1588294726   -2.5099396363    1.2799910359
     19  H        -1.2985377270   -1.8368286626   -1.7323319530
     20  N        -0.3049054501   -1.6117546619    0.2362963659
     21  H         0.3556778337   -2.3240159273    2.2372164344
     22  H        -1.7183016231    1.3272449878   -2.2731098512
     23  C        -2.1518425846    1.1056345338   -1.2890192859
     24  H        -1.1322891171    2.4212883990    0.0217422225
     25  N        -1.3501011035    1.3809638282   -0.0419607129
     26  C        -3.3594466491    0.6189818897   -0.9204099367
     27  C        -2.3889124952    1.0507120646    1.0325710692
     28  H        -4.1929793749    0.2933012075   -1.5638880580
     29  N        -3.5265571395    0.5754440130    0.5552583491
     30  H        -2.1317311336    1.2277646589    2.0922915814
   Point Group: c1    Number of degrees of freedom:    84


   Energy is  -2068.053959650


 Translations and Rotations Projected Out of Hessian

 79 Hessian modes will be used to form the next step
  Hessian Eigenvalues:
     0.001743    0.003840    0.007862    0.012102    0.025833    0.039292
     0.049087    0.063967    0.094258    0.115786    0.134959    0.195857
     0.227038    0.274236    0.325886    0.373270    0.431139    0.468647
     0.575262    0.674470    0.782261    0.830172    0.908356    0.922360
     0.957409    0.979471    0.991632    0.997474    0.999984    0.999999
     1.000000    1.000000    1.000000    1.000000    1.000000    1.000000
     1.000000    1.000000    1.000000    1.000000    1.000000    1.000001
     1.000001    1.000002    1.000003    1.000006    1.000008    1.000022
     1.000033    1.000043    1.000061    1.000105    1.000203    1.000743
     1.001059    1.001297    1.001920    1.002675    1.004728    1.007473
     1.009312    1.012732    1.014192    1.019535    1.021232    1.034268
     1.053204    1.057664    1.074726    1.111448    1.123956    1.176439
     1.234047    1.270823    1.433543    1.485840    1.668863    1.782178
     2.701373

 Minimum Search - Taking Simple RFO Step
 Searching for Lamda that Minimizes Along All modes
 Value Taken    Lamda =  -0.00000800
 Step Taken.  Stepsize is  0.028926

                             Maximum     Tolerance    Cnvgd?
         Gradient           0.000507      0.000300      NO
         Displacement       0.010058      0.001200      NO
         Energy change     -0.000010      0.000001      NO

 ----------------------------------------------------------------
             Standard Nuclear Orientation (Angstroms)
    I     Atom           X                Y                Z
 ----------------------------------------------------------------
    1      O       1.0281208499     0.6415222016     1.6462077303
    2      O       1.5485397663     0.9974993962     2.8565269112
    3      Fe      0.3616117788     0.2015904530     0.2224172149
    4      N       2.9279202070     2.5134824029    -1.5713188368
    5      C       3.7256123942     1.3924975717    -1.2022210572
    6      N       3.0256510159     0.2224159877    -1.1736102694
    7      C       1.5953558348     0.4946459569    -1.4869527771
    8      C       1.6931728330     1.9522925598    -1.7932479815
    9      H       1.2306846643    -0.1453202290    -2.3190366966
   10      H       0.8617833082     2.5788460938    -2.1641598550
   11      H       4.8068937420     1.4607573650    -0.9599776512
   12      H       3.4498125051    -0.7238338731    -0.9845967980
   13      H      -1.8454129722    -4.4306684549    -0.8317501802
   14      C      -1.3156820223    -3.5935886806    -0.3534715979
   15      H      -0.8013679496    -4.5536445717     1.5637355369
   16      N      -0.7621662480    -3.7017640515     0.9466280783
   17      C      -1.0349221368    -2.3155345040    -0.7825123952
   18      C      -0.1617197815    -2.5086421729     1.2807790819
   19      H      -1.2975888983    -1.8393256662    -1.7344306303
   20      N      -0.3066639897    -1.6117209358     0.2356666389
   21      H       0.3504954389    -2.3213951852     2.2391199304
   22      H      -1.7173856015     1.3242914602    -2.2722233350
   23      C      -2.1517138696     1.1039699801    -1.2883772407
   24      H      -1.1327744063     2.4201780923     0.0219764683
   25      N      -1.3508939442     1.3799941453    -0.0410989664
   26      C      -3.3600048035     0.6185136900    -0.9203475087
   27      C      -2.3899612464     1.0508568450     1.0328145502
   28      H      -4.1932964850     0.2927257739    -1.5640418083
   29      N      -3.5276822817     0.5762398307     0.5550826589
   30      H      -2.1330916559     1.2282910691     2.0925466357
 ----------------------------------------------------------------
 Molecular Point Group                 C1    NOp =  1
 Largest Abelian Subgroup              C1    NOp =  1
 Nuclear Repulsion Energy =  1705.6043492551 hartrees
 There are       76 alpha and       72 beta electrons


 *******************************************
 **  MAXIMUM OPTIMIZATION CYCLES REACHED  **
 *******************************************

 Q-Chem fatal error occurred in module 0, line  456:

 Maximum optimization cycles reached

