
Running Job 1 of 1 car_3_sys_2_opt_vdz_gga.in
qchem car_3_sys_2_opt_vdz_gga.in_11368.0 /scr/c295_lal/137166/qchem11368/ 1
/usr/software/qchem_511/exe/qcprog.exe_s car_3_sys_2_opt_vdz_gga.in_11368.0 /scr/c295_lal/137166/qchem11368/
Check license passed

                  Welcome to Q-Chem
     A Quantum Leap Into The Future Of Chemistry


 Q-Chem 5.1, Q-Chem, Inc., Pleasanton, CA (2018)

 Yihan Shao,  Zhengting Gan,  E. Epifanovsky,  A. T. B. Gilbert,  M. Wormit,  
 J. Kussmann,  A. W. Lange,  A. Behn,  Jia Deng,  Xintian Feng,  D. Ghosh,  
 M. Goldey,  P. R. Horn,  L. D. Jacobson,  I. Kaliman,  T. Kus,  A. Landau,  
 Jie Liu,  E. I. Proynov,  R. M. Richard,  R. P. Steele,  E. J. Sundstrom,  
 H. L. Woodcock III,  P. M. Zimmerman,  D. Zuev,  B. Albrecht,  E. Alguire,  
 S. A. Baeppler,  D. Barton,  Z. Benda,  Y. A. Bernard,  E. J. Berquist,  
 K. B. Bravaya,  H. Burton,  D. Casanova,  Chun-Min Chang,  Yunqing Chen,  
 A. Chien,  K. D. Closser,  M. P. Coons,  S. Coriani,  S. Dasgupta,  
 A. L. Dempwolff,  M. Diedenhofen,  Hainam Do,  R. G. Edgar,  Po-Tung Fang,  
 S. Faraji,  S. Fatehi,  Qingguo Feng,  K. D. Fenk,  J. Fosso-Tande,  
 Qinghui Ge,  A. Ghysels,  G. Gidofalvi,  J. Gomes,  J. Gonthier,  A. Gunina,  
 D. Hait,  M. W. D. Hanson-Heine,  P. H. P. Harbach,  A. W. Hauser,  
 J. E. Herr,  E. G. Hohenstein,  Z. C. Holden,  Kerwin Hui,  B. C. Huynh,  
 T.-C. Jagau,  Hyunjun Ji,  B. Kaduk,  K. Khistyaev,  Jaehoon Kim,  
 P. Klunzinger,  K. Koh,  D. Kosenkov,  L. Koulias,  T. Kowalczyk,  
 C. M. Krauter,  A. Kunitsa,  Ka Un Lao,  A. Laurent,  K. V. Lawler,  
 Joonho Lee,  D. Lefrancois,  S. Lehtola,  D. S. Levine,  Yi-Pei Li,  
 You-Sheng Lin,  Fenglai Liu,  E. Livshits,  A. Luenser,  P. Manohar,  
 E. Mansoor,  S. F. Manzer,  Shan-Ping Mao,  Yuezhi Mao,  N. Mardirossian,  
 A. V. Marenich,  T. Markovich,  L. A. Martinez-Martinez,  S. A. Maurer,  
 N. J. Mayhall,  S. C. McKenzie,  J.-M. Mewes,  A. F. Morrison,  
 J. W. Mullinax,  K. Nanda,  T. S. Nguyen-Beck,  R. Olivares-Amaya,  
 J. A. Parkhill,  T. M. Perrine,  F. Plasser,  P. Pokhilko,  S. Prager,  
 A. Prociuk,  E. Ramos,  D. R. Rehn,  F. Rob,  M. Schneider,  N. Sergueev,  
 S. M. Sharada,  S. Sharma,  D. W. Small,  T. Stauch,  T. Stein,  
 Yu-Chuan Su,  A. J. W. Thom,  A. Tkatchenko,  T. Tsuchimochi,  N. M. Tubman,  
 L. Vogt,  M. L. Vidal,  O. Vydrov,  M. A. Watson,  J. Wenzel,  
 M. de Wergifosse,  T. A. Wesolowski,  A. White,  J. Witte,  A. Yamada,  
 Jun Yang,  K. Yao,  S. Yeganeh,  S. R. Yost,  Zhi-Qiang You,  A. Zech,  
 Igor Ying Zhang,  Xing Zhang,  Yan Zhao,  Ying Zhu,  B. R. Brooks,  
 G. K. L. Chan,  C. J. Cramer,  M. S. Gordon,  W. J. Hehre,  A. Klamt,  
 M. W. Schmidt,  C. D. Sherrill,  D. G. Truhlar,  A. Aspuru-Guzik,  R. Baer,  
 A. T. Bell,  N. A. Besley,  Jeng-Da Chai,  A. E. DePrince, III,  
 R. A. DiStasio Jr.,  A. Dreuw,  B. D. Dunietz,  T. R. Furlani,  
 Chao-Ping Hsu,  Yousung Jung,  Jing Kong,  D. S. Lambrecht,  WanZhen Liang,  
 C. Ochsenfeld,  V. A. Rassolov,  L. V. Slipchenko,  J. E. Subotnik,  
 T. Van Voorhis,  J. M. Herbert,  A. I. Krylov,  P. M. W. Gill,  M. Head-Gordon

 Contributors to earlier versions of Q-Chem not listed above: 
 R. D. Adamson,  B. Austin,  J. Baker,  G. J. O. Beran,  K. Brandhorst,  
 S. T. Brown,  E. F. C. Byrd,  A. K. Chakraborty,  C.-L. Cheng,  
 Siu Hung Chien,  D. M. Chipman,  D. L. Crittenden,  H. Dachsel,  
 R. J. Doerksen,  A. D. Dutoi,  L. Fusti-Molnar,  W. A. Goddard III,  
 A. Golubeva-Zadorozhnaya,  S. R. Gwaltney,  G. Hawkins,  A. Heyden,  
 S. Hirata,  G. Kedziora,  F. J. Keil,  C. Kelley,  Jihan Kim,  R. A. King,  
 R. Z. Khaliullin,  P. P. Korambath,  W. Kurlancheek,  A. M. Lee,  M. S. Lee,  
 S. V. Levchenko,  Ching Yeh Lin,  D. Liotard,  R. C. Lochan,  I. Lotan,  
 P. E. Maslen,  N. Nair,  D. P. O'Neill,  D. Neuhauser,  E. Neuscamman,  
 C. M. Oana,  R. Olson,  B. Peters,  R. Peverati,  P. A. Pieniazek,  
 Y. M. Rhee,  J. Ritchie,  M. A. Rohrdanz,  E. Rosta,  N. J. Russ,  
 H. F. Schaefer III,  N. E. Schultz,  N. Shenvi,  A. C. Simmonett,  A. Sodt,  
 D. Stuck,  K. S. Thanthiriwatte,  V. Vanovschi,  Tao Wang,  A. Warshel,  
 C. F. Williams,  Q. Wu,  X. Xu,  W. Zhang

 Please cite Q-Chem as follows:
 Y. Shao et al., Mol. Phys. 113, 184-215 (2015)
 DOI: 10.1080/00268976.2014.952696

 Q-Chem 5.1.1 for Intel X86 EM64T Linux

 Parts of Q-Chem use Armadillo 8.300.2 (Tropical Shenanigans).
 http://arma.sourceforge.net/

 Q-Chem begins on Wed Oct 31 17:47:21 2018  

Host: cub-0-10.local
0

     Scratch files written to /scr/c295_lal/137166/qchem11368//
 Aug318 |scratch|qcdevops|jenkins|workspace|build_RNUM -1
Processing $rem in /usr/software/qchem_511/config/preferences.
 MEM_TOTAL  2000 
Input Ideriv = 2
Curr. Ideriv = -1
Max.  Ideriv = 2

Checking the input file for inconsistencies... 	...done.

--------------------------------------------------------------
User input:
--------------------------------------------------------------
$molecule
2 5
C         -0.51701       -0.47225       -0.08016
C         -1.74035       -1.10955       -0.22098
C         -3.00168       -0.42860       -0.14410
C         -4.27753       -0.96345       -0.29809
C         -5.42733       -0.07891       -0.14983
C         -6.74836       -0.45261       -0.24251
H         -1.74703       -2.18877       -0.39915
H         -2.94397        0.64861        0.06458
H         -5.18776        0.96130        0.09498
C         -7.95199        0.38392       -0.06286
H         -6.95253       -1.51744       -0.40156
C         -8.06873        1.67710       -0.52600
C         -9.32441        2.52712       -0.30265
C        -10.58464        1.70982        0.06417
H         -9.51372        3.13435       -1.20863
H         -9.11474        3.26400        0.50374
C        -10.22544        0.66024        1.13659
H        -10.97593        1.20803       -0.84002
H        -11.38477        2.38073        0.42610
C         -9.13930       -0.35599        0.64952
H        -11.12142        0.09579        1.45549
H         -9.84418        1.18501        2.03470
C         -6.98387        2.40186       -1.31675
H         -6.27032        1.70896       -1.78643
H         -6.39961        3.09608       -0.67966
H         -7.44303        3.02068       -2.10928
C         -9.78760       -1.38415       -0.34108
H        -10.20528       -0.88031       -1.22804
H        -10.60234       -1.93495        0.16284
H         -9.05408       -2.12802       -0.69643
C         -8.63034       -1.12850        1.91265
H         -8.12457       -0.44175        2.61289
H         -7.91806       -1.92944        1.65543
H         -9.48443       -1.59077        2.44006
C          0.78711       -1.09197       -0.13862
C          1.92132       -0.28487       -0.00893
C          3.29376       -0.68115       -0.05236
C          4.36395        0.20015        0.06386
H          3.52994       -1.74227       -0.19231
H          1.74121        0.78883        0.13802
H         -0.52638        0.61304        0.08863
C          5.73308       -0.20935        0.01816
C          6.87965        0.58445        0.10243
C          8.17157       -0.06346        0.05079
C          9.41192        0.54885        0.11302
H          9.45720        1.63772        0.20775
H          8.15309       -1.15754       -0.04615
C         10.65019       -0.18201        0.06204
C         11.94490        0.31392        0.11505
H         10.54741       -1.27216       -0.03031
C         13.05884       -0.63612        0.04972
C         14.38655       -0.33627        0.08334
H         14.75822        0.68829        0.16364
H         12.76689       -1.69147       -0.03355
H         15.14511       -1.12036        0.02948
H          4.13407        1.26332        0.19813
H          5.89828       -1.28928       -0.09829
C         -4.52182       -2.43524       -0.61060
H         -3.58752       -3.00000       -0.73109
H         -5.10454       -2.54957       -1.54271
H         -5.10487       -2.92183        0.19340
C          0.87274       -2.60124       -0.34580
H          1.90819       -2.96723       -0.34594
H          0.41351       -2.89735       -1.30670
H          0.32869       -3.14021        0.45103
C          6.82288        2.10184        0.24461
H          5.79278        2.48259        0.26605
H          7.34331        2.59658       -0.59591
H          7.32299        2.43390        1.17266
C         12.27130        1.79545        0.23677
H         11.37150        2.42490        0.27562
H         12.88244        2.13605       -0.61943
H         12.86225        1.99638        1.14950
O         -0.53526        3.10421       -0.32440
O         -1.77066        3.07461       -0.32440
Fe        -3.73866        3.03751       -0.32440
$end

$rem
BASIS = VDZ
METHOD  = BLYP
JOBTYPE = OPT
MAX_SCF_CYCLES = 500
SCF_ALGORITHM = DIIS_GDM
$end
--------------------------------------------------------------
 ----------------------------------------------------------------
             Standard Nuclear Orientation (Angstroms)
    I     Atom           X                Y                Z
 ----------------------------------------------------------------
    1      C      -0.0681492808    -0.9505094064    -0.0964617333
    2      C      -1.2789455169    -1.6017861141    -0.2763323614
    3      C      -2.5533877838    -0.9528882840    -0.1526985472
    4      C      -3.8187743579    -1.5021531730    -0.3389123087
    5      C      -4.9855517881    -0.6525565902    -0.1309504031
    6      C      -6.2991349801    -1.0459655673    -0.2453624116
    7      H      -1.2646136032    -2.6669736891    -0.5246768922
    8      H      -2.5165620142     0.1093295925     0.1258624267
    9      H      -4.7660473896     0.3740545278     0.1808989141
   10      C      -7.5186704685    -0.2474030595    -0.0091149694
   11      H      -6.4824789424    -2.1020285403    -0.4733124256
   12      C      -7.6627348822     1.0706564405    -0.3864821630
   13      C      -8.9344391675     1.8787725207    -0.1056475200
   14      C     -10.1768883188     1.0140053358     0.2093345074
   15      H      -9.1387626310     2.5399581272    -0.9696219556
   16      H      -8.7369595480     2.5654684785     0.7468012685
   17      C      -9.7933290856    -0.0959437835     1.2101455485
   18      H     -10.5609660780     0.5645766941    -0.7249881323
   19      H     -10.9891092364     1.6435625276     0.6158766248
   20      C      -8.6886527976    -1.0560689074     0.6556090369
   21      H     -10.6768133828    -0.6979765583     1.4931529824
   22      H      -9.4197583503     0.3766060647     2.1399228656
   23      C      -6.5951301756     1.8672622931    -1.1302046555
   24      H      -5.8693776747     1.2210607529    -1.6455396843
   25      H      -6.0228278242     2.5300134796    -0.4501931059
   26      H      -7.0691158211     2.5271566099    -1.8797024856
   27      C      -9.3194387511    -2.0301724621    -0.3988697828
   28      H      -9.7499566761    -1.4779827579    -1.2501924104
   29      H     -10.1213786683    -2.6290376720     0.0694998401
   30      H      -8.5723339669    -2.7342920254    -0.8034904345
   31      C      -8.1602929266    -1.8990370450     1.8645548356
   32      H      -7.6661123379    -1.2494472139     2.6072415192
   33      H      -7.4329674270    -2.6669329048     1.5541625410
   34      H      -9.0032698050    -2.4119077478     2.3622276335
   35      C       1.2479088508    -1.5386611853    -0.1977923983
   36      C       2.3661619246    -0.7190520404    -0.0177558945
   37      C       3.7461058742    -1.0838911117    -0.0896078588
   38      C       4.7988249602    -0.1906665302     0.0819607505
   39      H       4.0030087065    -2.1286208747    -0.2990912863
   40      H       2.1650884854     0.3389015912     0.1994287966
   41      H      -0.0986794070     0.1210231714     0.1429502362
   42      C       6.1757166784    -0.5686130911     0.0069854865
   43      C       7.3064473694     0.2409440519     0.1408061669
   44      C       8.6108936522    -0.3760233659     0.0444607220
   45      C       9.8389438365     0.2557997114     0.1442433622
   46      H       9.8627431295     1.3368448370     0.3098844149
   47      H       8.6139859572    -1.4615814686    -0.1237770968
   48      C      11.0914121038    -0.4450485547     0.0432342519
   49      C      12.3761089380     0.0723655180     0.1261036099
   50      H      11.0101578454    -1.5286856983    -0.1200065513
   51      C      13.5086098676    -0.8487193204    -0.0033208822
   52      C      14.8301589471    -0.5249939625     0.0473160029
   53      H      15.1815210464     0.4994162900     0.1937338374
   54      H      13.2375576268    -1.9020458690    -0.1548668579
   55      H      15.6040708859    -1.2884330177    -0.0591378424
   56      H       4.5481616028     0.8566065931     0.2858984435
   57      H       6.3621056886    -1.6350755978    -0.1801436296
   58      C      -4.0345842752    -2.9550059963    -0.7465281349
   59      H      -3.0895685379    -3.4917311046    -0.9054608317
   60      H      -4.6178909480    -3.0199175510    -1.6830124193
   61      H      -4.6052023803    -3.5047458141     0.0250379618
   62      C       1.3630389608    -3.0291353008    -0.5033802756
   63      H       2.4055952785    -3.3733792641    -0.5294152604
   64      H       0.9067398148    -3.2710301008    -1.4807134481
   65      H       0.8324373467    -3.6298776007     0.2575321560
   66      C       7.2198002646     1.7443480665     0.3820094955
   67      H       6.1823660599     2.1020336817     0.4302538488
   68      H       7.7275309789     2.3033421725    -0.4253467048
   69      H       7.7161466176     2.0250794190     1.3288362292
   70      C      12.6732046800     1.5490570472     0.3438192659
   71      H      11.7611260627     2.1563505967     0.4254514005
   72      H      13.2746589831     1.9571256199    -0.4894343935
   73      H      13.2629455899     1.7017981104     1.2666121176
   74      O      -0.1587028371     2.6331697020    -0.1062837919
   75      O      -1.3932574559     2.5787266366    -0.1058764439
   76      Fe     -3.3601118009     2.5020279470    -0.1045701838
 ----------------------------------------------------------------
 Molecular Point Group                 C1    NOp =  1
 Largest Abelian Subgroup              C1    NOp =  1
 Nuclear Repulsion Energy =  3307.3643726742 hartrees
 There are      136 alpha and      132 beta electrons
 Requested basis set is VDZ
 There are 258 shells and 402 basis functions

 Total QAlloc Memory Limit   2000 MB
 Mega-Array Size       188 MB
 MEM_STATIC part       192 MB
 A cutoff of  1.0D-12 yielded  14566 shell pairs
 There are     36090 function pairs (     36476 Cartesian)
 
 -------------------------------------------------------
 OpenMP Integral Computing Module                       
 Release: version 1.0, May 2013, Q-Chem Inc. Pittsburgh 
 -------------------------------------------------------
 Integral Job Info:
 Integral job number is                      11
 Integral operator is                         1
 short-range coefficients                     0
 long-range coefficients              100000000
 Omega coefficients                           0
 if combine SR and LR in K                    0
 Integral screening is                        0
 Integral computing path is                   2
 max size of driver memory is            800000
 size of driver memory is                593474
 size of scratch memory is             29634545
 max col of scratch BK array               1296
 max len of scratch array in speh3          155
 max len of scratch index in speh4           18
 max int batch size is                      520
 min int batch size is                       52
 fixed nKL is                                45
 max L of basis functions is                  2
 order of int derivative is                   0
 number of shells is                        258
 number of basis is                         404
 number of cartesian basis is               404
 number of contracted shell pairs         14566
 number of primitive shell pairs          40150
 maxK2 (contraction) of shell pair           36
 max number of K2 of shell pair               1
 max number of CS2 of shell pair           3617
 max number of PS2 of shell pair           8430
 mem total for path MDJ                  643946
 -------------------------------------------------------
 Smallest overlap matrix eigenvalue = 8.44E-04

 Scale SEOQF with 1.000000e-02/1.000000e-01/1.000000e-01

 Standard Electronic Orientation quadrupole field applied
 Nucleus-field energy     =     0.0000001003 hartrees
 Guess from superposition of atomic densities
 Warning:  Energy on first SCF cycle will be non-variational
 SAD guess density has 270.000000 electrons

 -----------------------------------------------------------------------
  General SCF calculation program by
  Eric Jon Sundstrom, Paul Horn, Yuezhi Mao, Dmitri Zuev, Alec White,
  David Stuck, Shaama M.S., Shane Yost, Joonho Lee, David Small,
  Daniel Levine, Susi Lehtola, Hugh Burton, Evgeny Epifanovsky
 -----------------------------------------------------------------------
 Exchange:  B88      Correlation:  LYP
 Using SG-1 standard quadrature grid
 using 12 threads for integral computing
 -------------------------------------------------------
 OpenMP Integral computing Module                
 Release: version 1.0, May 2013, Q-Chem Inc. Pittsburgh 
 -------------------------------------------------------
 -------------------------------------------------------
 OpenMP BLAS3 based DFT computing Module                
 Release: version 1.0, May 2013, Q-Chem Inc. Pittsburgh 
 -------------------------------------------------------
 A unrestricted SCF calculation will be
 performed using DIIS, GDM
 SCF converges when RMS gradient is below 1.0e-08
 ---------------------------------------
  Cycle       Energy         DIIS error
 ---------------------------------------
    1   -2623.1653506742      2.28e-02  
    2   -2615.3411636518      4.26e-03  Done DIIS. Switching to GDM
 ---------------------------------------
  Cycle       Energy        RMS Gradient
 ---------------------------------------
    1   -2615.3411636518      1.10e+00   Descent step
    2   -2615.9306182837      8.26e-01   Descent step
    3   -2616.5454232752      2.61e-01   Descent step
    4   -2616.9312878545      1.68e-01   Descent step
    5   -2617.0574861684      7.11e-01   Descent step
    6   -2616.8392611966      2.23e+00  Line search: overstep
    7   -2617.1311418113      1.91e-01   Descent step
    8   -2617.0029033436      1.27e+00  Line search: overstep
    9   -2617.1587576472      5.25e-01   Descent step
   10   -2616.5774742768      2.92e+00  Line search: overstep
   11   -2617.1832521935      1.80e-01   Descent step
   12   -2616.9618397317      1.15e+00  Line search: overstep
   13   -2617.2065110332      4.55e-01   Descent step
   14   -2616.7528068213      1.79e+00  Line search: overstep
   15   -2617.2272414500      2.15e-01   Descent step
   16   -2616.8451108336      1.68e+00  Line search: overstep
   17   -2617.2471560546      3.36e-01   Descent step
   18   -2617.0105701149      1.10e+00  Line search: overstep
   19   -2617.2650627554      2.86e-01   Descent step
   20   -2616.7385577369      2.19e+00  Line search: overstep
   21   -2617.2878431675      2.30e-01   Descent step
   22   -2617.3007109068      3.06e-01   Descent step
   23   -2617.2849277117      4.05e-01  Line search: overstep
   24   -2617.4076759404      1.50e-01   Descent step
   25   -2617.4519178378      3.01e-01   Descent step
   26   -2617.3397568290      5.15e-01  Line search: overstep
   27   -2617.5211826709      2.63e-01   Descent step
   28   -2617.4266453471      6.36e-01  Line search: overstep
   29   -2617.5569553564      1.59e-01   Descent step
   30   -2617.2490345713      7.47e-01  Line search: overstep
   31   -2617.5779367461      1.53e-01   Descent step
   32   -2617.5441839359      4.26e-01  Line search: overstep
   33   -2617.6072782522      2.52e-01   Descent step
   34   -2617.1693577336      9.94e-01  Line search: overstep
   35   -2617.6352534099      1.33e-01   Descent step
   36   -2617.7291853445      1.60e-01   Descent step
   37   -2617.2013214893      1.47e+00  Line search: overstep
   38   -2617.7443465506      8.00e-02   Descent step
   39   -2617.7593868399      2.48e-01   Descent step
   40   -2617.6011204224      4.69e-01  Line search: overstep
   41   -2617.8112117816      2.03e-01   Descent step
   42   -2617.6794876808      4.51e-01  Line search: overstep
   43   -2617.8257505103      1.08e-01   Descent step
   44   -2617.3944295904      1.87e+00  Line search: overstep
   45   -2617.8318685516      7.29e-02   Dog-leg BFGS step
   46   -2617.8048691680      2.49e-01  Line search: overstep
   47   -2617.8426910123      6.43e-02   Dog-leg BFGS step
   48   -2617.8390167704      9.52e-02  Line search: overstep
   49   -2617.8532672997      1.12e-01   Dog-leg BFGS step
   50   -2617.7549545639      6.97e-01  Line search: overstep
   51   -2617.8589021929      5.14e-02   Normal BFGS step
   52   -2617.8628924836      8.88e-02   Normal BFGS step
   53   -2617.8646347737      5.93e-02   Normal BFGS step
   54   -2617.8658408679      7.06e-02   Normal BFGS step
   55   -2617.8687730955      1.36e-01   Normal BFGS step
   56   -2617.8701541755      3.10e-02   Normal BFGS step
   57   -2617.8723976945      3.78e-02   Normal BFGS step
   58   -2617.8732576516      2.43e-02   Normal BFGS step
   59   -2617.8742891098      2.26e-02   Normal BFGS step
   60   -2617.8746300816      1.71e-02   Normal BFGS step
   61   -2617.8754646296      1.27e-02   Normal BFGS step
   62   -2617.8755164099      2.80e-02   Normal BFGS step
   63   -2617.8760779241      1.05e-02   Normal BFGS step
   64   -2617.8760157633      1.36e-02  Line search: overstep
   65   -2617.8763228730      6.24e-03   Normal BFGS step
   66   -2617.8764499883      8.82e-03   Normal BFGS step
   67   -2617.8765654804      7.81e-03   Normal BFGS step
   68   -2617.8766069566      8.15e-03   Normal BFGS step
   69   -2617.8766927502      8.13e-03   Normal BFGS step
   70   -2617.8767055346      5.20e-03   Normal BFGS step
   71   -2617.8768675530      3.43e-03   Normal BFGS step
   72   -2617.8768906711      8.66e-03   Normal BFGS step
   73   -2617.8770693904      4.44e-03   Normal BFGS step
   74   -2617.8770966671      1.11e-02   Normal BFGS step
   75   -2617.8771715797      1.36e-02   Normal BFGS step
   76   -2617.8770859564      1.09e-02  Line search: overstep
   77   -2617.8772669499      3.83e-03   Normal BFGS step
   78   -2617.8773154837      3.02e-03   Normal BFGS step
   79   -2617.8773717568      1.15e-02   Normal BFGS step
   80   -2617.8774089864      3.82e-03   Normal BFGS step
   81   -2617.8774424104      2.06e-03   Normal BFGS step
   82   -2617.8774579812      2.32e-03   Normal BFGS step
   83   -2617.8774665381      1.30e-03   Normal BFGS step
   84   -2617.8774715247      1.51e-03   Normal BFGS step
   85   -2617.8774694278      4.98e-03  Line search: overstep
   86   -2617.8774758083      1.43e-03   Normal BFGS step
   87   -2617.8774595377      8.31e-03  Line search: overstep
   88   -2617.8774777237      9.22e-04   Normal BFGS step
   89   -2617.8774773432      1.42e-03  Line search: overstep
   90   -2617.8774787796      5.87e-04   Normal BFGS step
   91   -2617.8774792100      6.60e-04   Normal BFGS step
   92   -2617.8774805359      6.67e-04   Normal BFGS step
   93   -2617.8774829404      7.12e-04   Normal BFGS step
   94   -2617.8774874256      3.05e-03   Normal BFGS step
   95   -2617.8774951594      5.86e-03   Normal BFGS step
   96   -2617.8775217441      9.56e-03   Normal BFGS step
   97   -2617.8774953957      1.07e-02  Line search: overstep
   98   -2617.8775432632      2.25e-03   Normal BFGS step
   99   -2617.8775294708      6.97e-03  Line search: overstep
  100   -2617.8775618585      2.25e-03   Normal BFGS step
  101   -2617.8775684416      1.89e-03   Normal BFGS step
  102   -2617.8775745613      2.11e-03   Normal BFGS step
  103   -2617.8775779087      1.12e-03   Normal BFGS step
  104   -2617.8775793565      2.56e-03   Normal BFGS step
  105   -2617.8775785788      4.59e-03  Line search: overstep
  106   -2617.8775835114      8.45e-04   Normal BFGS step
  107   -2617.8775779760      3.01e-03  Line search: overstep
  108   -2617.8775854139      4.66e-04   Normal BFGS step
  109   -2617.8775852050      6.32e-04  Line search: overstep
  110   -2617.8775858512      2.85e-04   Normal BFGS step
  111   -2617.8775858486      4.63e-04   Normal BFGS step
  112   -2617.8775862795      1.18e-04   Normal BFGS step
  113   -2617.8775862847      1.79e-04   Normal BFGS step
  114   -2617.8775863466      3.94e-04   Normal BFGS step
  115   -2617.8775861531      5.58e-04  Line search: overstep
  116   -2617.8775863996      9.14e-05   Normal BFGS step
  117   -2617.8775863775      1.73e-04  Line search: overstep
  118   -2617.8775864208      6.82e-05   Normal BFGS step
  119   -2617.8775864238      5.31e-05   Normal BFGS step
  120   -2617.8775864323      6.96e-05   Normal BFGS step
  121   -2617.8775864339      5.78e-05   Normal BFGS step
  122   -2617.8775864355      2.32e-05   Normal BFGS step
  123   -2617.8775864344      4.09e-05   Normal BFGS step
  124   -2617.8775864360      4.39e-05   Normal BFGS step
  125   -2617.8775864359      2.22e-05   Normal BFGS step
  126   -2617.8775864369      1.29e-05   Normal BFGS step
  127   -2617.8775864365      1.98e-05   Normal BFGS step
  128   -2617.8775864372      9.66e-06   Normal BFGS step
  129   -2617.8775864369      3.40e-05   Normal BFGS step
  130   -2617.8775864370      3.15e-05   Normal BFGS step
  131   -2617.8775864360      2.18e-05   Normal BFGS step
  132   -2617.8775864373      6.77e-06   Normal BFGS step
  133   -2617.8775864368      1.55e-05   Normal BFGS step
  134   -2617.8775864374      1.65e-06   Normal BFGS step
  135   -2617.8775864373      5.13e-06   Normal BFGS step
  136   -2617.8775864374      3.28e-06   Normal BFGS step
  137   -2617.8775864373      9.68e-06   Normal BFGS step
  138   -2617.8775864374      6.02e-07   Normal BFGS step
  139   -2617.8775864374      9.76e-07   Normal BFGS step
  140   -2617.8775864374      1.15e-06   Normal BFGS step
  141   -2617.8775864374      2.69e-06   Normal BFGS step
  142   -2617.8775864374      2.84e-07   Normal BFGS step
  143   -2617.8775864374      5.31e-07   Normal BFGS step
  144   -2617.8775864375      1.96e-07   Normal BFGS step
  145   -2617.8775864374      4.22e-07   Normal BFGS step
  146   -2617.8775864374      2.30e-07   Normal BFGS step
  147   -2617.8775864375      5.00e-07   Normal BFGS step
  148   -2617.8775864374      6.69e-07   Normal BFGS step
  149   -2617.8775864375      2.24e-06   Normal BFGS step
  150   -2617.8775864374      2.82e-07   Normal BFGS step
  151   -2617.8775864374      5.89e-07   Normal BFGS step
  152   -2617.8775864375      1.30e-07   Normal BFGS step
  153   -2617.8775864375      3.61e-07   Normal BFGS step
  154   -2617.8775864374      5.05e-08   Normal BFGS step
  155   -2617.8775864374      1.26e-07   Normal BFGS step
  156   -2617.8775864375      7.01e-08   Normal BFGS step
  157   -2617.8775864375      2.15e-07   Normal BFGS step
  158   -2617.8775864375      5.98e-08   Normal BFGS step
  159   -2617.8775864374      1.36e-07   Normal BFGS step
  160   -2617.8775864375      5.03e-08   Normal BFGS step
  161   -2617.8775864375      8.60e-08   Normal BFGS step
  162   -2617.8775864375      2.07e-08   Normal BFGS step
  /scratch/qcdevops/jenkins/workspace/build_qchem_linux_distrib/tags/qc511/qchem/libgscf/libgscf/opt/gdm.C::WARNING energy changes are now smaller than effective accuracy.
  /scratch/qcdevops/jenkins/workspace/build_qchem_linux_distrib/tags/qc511/qchem/libgscf/libgscf/opt/gdm.C::        calculation will continue, but THRESH should be increased
  /scratch/qcdevops/jenkins/workspace/build_qchem_linux_distrib/tags/qc511/qchem/libgscf/libgscf/opt/gdm.C::        or SCF_CONVERGENCE decreased. 
  /scratch/qcdevops/jenkins/workspace/build_qchem_linux_distrib/tags/qc511/qchem/libgscf/libgscf/opt/gdm.C::        effective_thresh = 7.84e-09
  163   -2617.8775864374      1.91e-08   Normal BFGS step
  164   -2617.8775864375      1.88e-08   Normal BFGS step
  /scratch/qcdevops/jenkins/workspace/build_qchem_linux_distrib/tags/qc511/qchem/libgscf/libgscf/opt/gdm.C::WARNING energy changes are now smaller than effective accuracy.
  /scratch/qcdevops/jenkins/workspace/build_qchem_linux_distrib/tags/qc511/qchem/libgscf/libgscf/opt/gdm.C::        calculation will continue, but THRESH should be increased
  /scratch/qcdevops/jenkins/workspace/build_qchem_linux_distrib/tags/qc511/qchem/libgscf/libgscf/opt/gdm.C::        or SCF_CONVERGENCE decreased. 
  /scratch/qcdevops/jenkins/workspace/build_qchem_linux_distrib/tags/qc511/qchem/libgscf/libgscf/opt/gdm.C::        effective_thresh = 7.84e-09
  165   -2617.8775864374      1.38e-08   Normal BFGS step
  166   -2617.8775864374      1.68e-08   Normal BFGS step
  167   -2617.8775864374      8.00e-08   Normal BFGS step
  168   -2617.8775864374      4.33e-08   Normal BFGS step
  /scratch/qcdevops/jenkins/workspace/build_qchem_linux_distrib/tags/qc511/qchem/libgscf/libgscf/opt/gdm.C::WARNING energy changes are now smaller than effective accuracy.
  /scratch/qcdevops/jenkins/workspace/build_qchem_linux_distrib/tags/qc511/qchem/libgscf/libgscf/opt/gdm.C::        calculation will continue, but THRESH should be increased
  /scratch/qcdevops/jenkins/workspace/build_qchem_linux_distrib/tags/qc511/qchem/libgscf/libgscf/opt/gdm.C::        or SCF_CONVERGENCE decreased. 
  /scratch/qcdevops/jenkins/workspace/build_qchem_linux_distrib/tags/qc511/qchem/libgscf/libgscf/opt/gdm.C::        effective_thresh = 7.84e-09
  169   -2617.8775864374      1.18e-07   Normal BFGS step
  170   -2617.8775864374      2.49e-08   Normal BFGS step
  /scratch/qcdevops/jenkins/workspace/build_qchem_linux_distrib/tags/qc511/qchem/libgscf/libgscf/opt/gdm.C::WARNING energy changes are now smaller than effective accuracy.
  /scratch/qcdevops/jenkins/workspace/build_qchem_linux_distrib/tags/qc511/qchem/libgscf/libgscf/opt/gdm.C::        calculation will continue, but THRESH should be increased
  /scratch/qcdevops/jenkins/workspace/build_qchem_linux_distrib/tags/qc511/qchem/libgscf/libgscf/opt/gdm.C::        or SCF_CONVERGENCE decreased. 
  /scratch/qcdevops/jenkins/workspace/build_qchem_linux_distrib/tags/qc511/qchem/libgscf/libgscf/opt/gdm.C::        effective_thresh = 7.84e-09
  171   -2617.8775864374      5.53e-08   Normal BFGS step
  172   -2617.8775864375      8.90e-09  Convergence criterion met
 ---------------------------------------
 SCF time:   CPU 10301.86s  wall 923.00s 
<S^2> =          6.137816247
 SCF   energy in the final basis set =    -2617.8775864375
 Total energy in the final basis set =    -2617.8775864375
 
 --------------------------------------------------------------
 
                    Orbital Energies (a.u.)
 --------------------------------------------------------------
 
 Alpha MOs
 -- Occupied --
******* -29.756 -25.714 -25.713 -25.704 -19.073 -19.048 -10.143
-10.136 -10.135 -10.128 -10.127 -10.127 -10.123 -10.123 -10.122
-10.121 -10.121 -10.119 -10.119 -10.117 -10.116 -10.113 -10.107
-10.105 -10.103 -10.094 -10.093 -10.092 -10.091 -10.089 -10.087
-10.076 -10.075 -10.054 -10.052 -10.049 -10.048  -3.522  -2.351
 -2.348  -2.327  -1.311  -0.942  -0.935  -0.928  -0.918  -0.912
 -0.894  -0.874  -0.868  -0.859  -0.858  -0.843  -0.820  -0.813
 -0.805  -0.795  -0.786  -0.783  -0.776  -0.754  -0.744  -0.742
 -0.729  -0.707  -0.684  -0.668  -0.668  -0.667  -0.658  -0.650
 -0.646  -0.636  -0.630  -0.623  -0.613  -0.612  -0.606  -0.599
 -0.590  -0.589  -0.581  -0.576  -0.572  -0.563  -0.557  -0.556
 -0.550  -0.547  -0.543  -0.541  -0.539  -0.537  -0.533  -0.529
 -0.525  -0.519  -0.518  -0.515  -0.511  -0.508  -0.504  -0.501
 -0.500  -0.499  -0.492  -0.489  -0.487  -0.487  -0.485  -0.481
 -0.478  -0.477  -0.472  -0.467  -0.460  -0.458  -0.454  -0.453
 -0.452  -0.450  -0.448  -0.446  -0.445  -0.436  -0.422  -0.416
 -0.415  -0.414  -0.406  -0.397  -0.377  -0.369  -0.359  -0.339
 -- Virtual --
 -0.338  -0.333  -0.292  -0.258  -0.228  -0.198  -0.176  -0.156
 -0.148  -0.143  -0.132  -0.131  -0.125  -0.124  -0.123  -0.115
 -0.114  -0.111  -0.108  -0.105  -0.093  -0.091  -0.087  -0.079
 -0.074  -0.074  -0.069  -0.067  -0.064  -0.058  -0.055  -0.054
 -0.052  -0.049  -0.049  -0.044  -0.040  -0.039  -0.036  -0.027
 -0.025  -0.023  -0.022  -0.010  -0.007  -0.005  -0.001   0.002
  0.003   0.006   0.007   0.012   0.014   0.017   0.019   0.022
  0.024   0.027   0.028   0.031   0.036   0.041   0.045   0.048
  0.054   0.063   0.072   0.074   0.086   0.089   0.103   0.110
  0.117   0.119   0.128   0.141   0.146   0.148   0.150   0.158
  0.163   0.167   0.171   0.176   0.186   0.190   0.193   0.197
  0.205   0.210   0.215   0.218   0.226   0.229   0.234   0.241
  0.243   0.247   0.248   0.249   0.252   0.254   0.256   0.260
  0.264   0.269   0.274   0.278   0.283   0.285   0.287   0.293
  0.296   0.300   0.301   0.302   0.305   0.307   0.311   0.314
  0.316   0.327   0.336   0.340   0.342   0.355   0.367   0.382
  0.392   0.394   0.399   0.400   0.408   0.410   0.416   0.418
  0.423   0.424   0.426   0.427   0.428   0.432   0.433   0.437
  0.439   0.440   0.441   0.445   0.447   0.452   0.455   0.456
  0.457   0.459   0.462   0.466   0.469   0.473   0.475   0.477
  0.479   0.479   0.482   0.483   0.484   0.488   0.492   0.492
  0.495   0.497   0.499   0.502   0.505   0.508   0.509   0.511
  0.514   0.516   0.519   0.522   0.524   0.525   0.527   0.529
  0.531   0.532   0.535   0.535   0.539   0.545   0.546   0.553
  0.556   0.558   0.562   0.568   0.574   0.576   0.577   0.585
  0.588   0.594   0.596   0.602   0.604   0.614   0.617   0.624
  0.629   0.640   0.652   0.663   0.666   0.672   0.676   0.682
  0.688   0.694   0.697   0.703   0.707   0.719   0.734   0.750
  0.752   0.765   0.784   0.791   0.803   0.822   0.836   0.838
  0.842   0.873   0.877   0.881   0.887   0.898   0.904   0.911
  0.914   0.920   0.928   0.939   0.943   0.958   0.966   0.971
  0.978   0.993   0.999   1.013   1.021   1.028   1.054   1.064
  1.072   1.083   1.094   1.099   1.108   1.122   1.133   1.147
  1.177   1.238
 
 Beta MOs
 -- Occupied --
******* -29.703 -25.672 -25.671 -25.667 -19.071 -19.051 -10.142
-10.135 -10.134 -10.127 -10.127 -10.126 -10.123 -10.122 -10.122
-10.120 -10.120 -10.119 -10.118 -10.117 -10.115 -10.112 -10.106
-10.106 -10.103 -10.094 -10.093 -10.091 -10.091 -10.089 -10.087
-10.076 -10.075 -10.054 -10.052 -10.049 -10.048  -3.395  -2.223
 -2.221  -2.209  -1.312  -0.941  -0.933  -0.927  -0.917  -0.910
 -0.892  -0.873  -0.869  -0.859  -0.857  -0.842  -0.818  -0.813
 -0.804  -0.795  -0.786  -0.782  -0.775  -0.753  -0.744  -0.742
 -0.729  -0.706  -0.683  -0.668  -0.667  -0.666  -0.657  -0.650
 -0.646  -0.635  -0.630  -0.623  -0.618  -0.612  -0.606  -0.598
 -0.590  -0.587  -0.581  -0.576  -0.572  -0.563  -0.556  -0.555
 -0.550  -0.546  -0.542  -0.540  -0.539  -0.536  -0.533  -0.528
 -0.525  -0.518  -0.518  -0.514  -0.511  -0.508  -0.504  -0.501
 -0.499  -0.499  -0.491  -0.488  -0.487  -0.487  -0.483  -0.480
 -0.477  -0.476  -0.472  -0.464  -0.460  -0.458  -0.452  -0.447
 -0.445  -0.434  -0.420  -0.414  -0.413  -0.406  -0.395  -0.392
 -0.377  -0.375  -0.357  -0.356
 -- Virtual --
 -0.335  -0.332  -0.327  -0.315  -0.312  -0.299  -0.288  -0.255
 -0.225  -0.196  -0.173  -0.153  -0.143  -0.141  -0.131  -0.129
 -0.123  -0.121  -0.120  -0.114  -0.110  -0.109  -0.107  -0.104
 -0.092  -0.091  -0.085  -0.079  -0.074  -0.073  -0.068  -0.066
 -0.064  -0.058  -0.055  -0.054  -0.051  -0.049  -0.048  -0.044
 -0.039  -0.039  -0.036  -0.026  -0.025  -0.022  -0.022  -0.010
 -0.007  -0.003  -0.001   0.002   0.003   0.007   0.007   0.014
  0.015   0.018   0.019   0.023   0.025   0.028   0.028   0.031
  0.037   0.041   0.045   0.049   0.055   0.064   0.072   0.074
  0.087   0.089   0.104   0.111   0.118   0.120   0.128   0.142
  0.147   0.149   0.151   0.159   0.164   0.168   0.172   0.177
  0.187   0.191   0.194   0.198   0.205   0.211   0.216   0.219
  0.227   0.230   0.235   0.243   0.244   0.247   0.248   0.250
  0.253   0.255   0.256   0.261   0.265   0.270   0.275   0.279
  0.284   0.285   0.288   0.294   0.296   0.301   0.302   0.303
  0.306   0.309   0.311   0.315   0.318   0.328   0.337   0.341
  0.345   0.355   0.369   0.384   0.393   0.395   0.400   0.402
  0.409   0.411   0.417   0.419   0.424   0.425   0.427   0.428
  0.429   0.433   0.434   0.438   0.439   0.442   0.442   0.446
  0.449   0.452   0.455   0.456   0.458   0.460   0.463   0.466
  0.471   0.474   0.476   0.478   0.479   0.480   0.482   0.484
  0.485   0.489   0.493   0.494   0.496   0.498   0.500   0.502
  0.506   0.508   0.511   0.511   0.515   0.516   0.520   0.523
  0.525   0.527   0.528   0.530   0.532   0.533   0.536   0.536
  0.540   0.545   0.548   0.553   0.557   0.558   0.563   0.568
  0.575   0.576   0.581   0.586   0.589   0.595   0.596   0.602
  0.605   0.614   0.618   0.626   0.636   0.641   0.653   0.665
  0.668   0.672   0.675   0.682   0.688   0.697   0.701   0.706
  0.734   0.743   0.752   0.761   0.768   0.772   0.788   0.792
  0.813   0.822   0.839   0.842   0.854   0.877   0.881   0.884
  0.900   0.904   0.910   0.916   0.918   0.928   0.940   0.946
  0.952   0.961   0.968   0.975   0.988   0.995   1.007   1.014
  1.022   1.029   1.056   1.065   1.079   1.085   1.095   1.100
  1.111   1.123   1.136   1.148   1.178   1.239
 --------------------------------------------------------------
 
          Ground-State Mulliken Net Atomic Charges

     Atom                 Charge (a.u.)    Spin (a.u.)
  --------------------------------------------------------
      1 C                    -0.094283      -0.043118
      2 C                     0.067356       0.042612
      3 C                    -0.055322      -0.030704
      4 C                     0.095049       0.033628
      5 C                    -0.029773      -0.028236
      6 C                    -0.008278       0.030966
      7 H                     0.070915      -0.002996
      8 H                    -0.088063      -0.000962
      9 H                    -0.108310       0.005699
     10 C                     0.097043      -0.033566
     11 H                     0.085310      -0.001744
     12 C                    -0.087801       0.005883
     13 C                    -0.081497      -0.002893
     14 C                    -0.057504      -0.000814
     15 H                     0.079842       0.000369
     16 H                     0.089744      -0.000034
     17 C                    -0.052307      -0.000237
     18 H                     0.075125       0.000005
     19 H                     0.077964      -0.000171
     20 C                    -0.216147       0.001383
     21 H                     0.074332      -0.000213
     22 H                     0.055622       0.000002
     23 C                    -0.158636      -0.002695
     24 H                     0.092481      -0.000667
     25 H                     0.012235       0.008516
     26 H                     0.119886      -0.001950
     27 C                    -0.128574      -0.000998
     28 H                     0.083020      -0.000041
     29 H                     0.093889      -0.000101
     30 H                     0.068753       0.000024
     31 C                    -0.106516      -0.001175
     32 H                     0.065827       0.000036
     33 H                     0.059536       0.000003
     34 H                     0.093864      -0.000092
     35 C                     0.081723       0.044349
     36 C                    -0.064647      -0.032731
     37 C                     0.033485       0.034498
     38 C                     0.022932      -0.017973
     39 H                     0.073203      -0.003385
     40 H                     0.060602       0.001112
     41 H                     0.054362       0.002596
     42 C                    -0.046152       0.021627
     43 C                     0.072473       0.003509
     44 C                    -0.060170      -0.000510
     45 C                     0.070997       0.023333
     46 H                     0.073442      -0.003056
     47 H                     0.060210      -0.001135
     48 C                    -0.060390      -0.015338
     49 C                     0.086566       0.045441
     50 H                     0.060695      -0.000554
     51 C                    -0.050015      -0.033723
     52 C                    -0.017156       0.054117
     53 H                     0.104778      -0.004882
     54 H                     0.066821       0.000982
     55 H                     0.120070      -0.005127
     56 H                     0.072080      -0.000439
     57 H                     0.061025      -0.002694
     58 C                    -0.131029      -0.003366
     59 H                     0.093969      -0.000037
     60 H                     0.119584       0.000786
     61 H                     0.124178       0.000992
     62 C                    -0.136861      -0.007803
     63 H                     0.093920       0.000233
     64 H                     0.116254       0.001560
     65 H                     0.116301       0.001517
     66 C                    -0.138352      -0.003749
     67 H                     0.090559       0.000110
     68 H                     0.119140       0.000416
     69 H                     0.119372       0.000448
     70 C                    -0.152208      -0.008545
     71 H                     0.087132       0.000228
     72 H                     0.127249       0.001845
     73 H                     0.127355       0.001856
     74 O                    -0.442835       0.281362
     75 O                    -0.544709       0.305720
     76 Fe                    1.049270       3.340691
  --------------------------------------------------------
  Sum of atomic charges =     2.000000
  Sum of spin   charges =     4.000000

 -----------------------------------------------------------------
                    Cartesian Multipole Moments
 -----------------------------------------------------------------
    Charge (ESU x 10^10)
                 9.6064
    Dipole Moment (Debye)
         X      23.1518      Y      -6.1636      Z      -0.6515
       Tot      23.9670
    Quadrupole Moments (Debye-Ang)
        XX     606.4389     XY     -19.9338     YY    -175.4263
        XZ       9.4612     YZ       4.3305     ZZ    -213.1691
    Octopole Moments (Debye-Ang^2)
       XXX    5872.5334    XXY     127.6331    XYY     -87.2238
       YYY      44.1254    XXZ      76.2102    XYZ      33.5391
       YYZ     -15.4411    XZZ     -70.0255    YZZ      35.5022
       ZZZ      -4.3984
    Hexadecapole Moments (Debye-Ang^3)
      XXXX   38591.8980   XXXY    -957.2029   XXYY  -10756.3885
      XYYY    -412.1432   YYYY   -3348.8203   XXXZ     613.3413
      XXYZ     105.4192   XYYZ      41.6445   YYYZ      14.4829
      XXZZ  -12551.8399   XYZZ     -50.7448   YYZZ    -688.7184
      XZZZ      27.4843   YZZZ      -4.8193   ZZZZ    -674.7451
 -----------------------------------------------------------------
 Calculating analytic gradient of the SCF energy
 Gradient of SCF Energy
            1           2           3           4           5           6
    1  -0.0245429   0.0206803  -0.0192126   0.0222968  -0.0123336   0.0150223
    2   0.0084933   0.0000304   0.0086452   0.0050368   0.0092909  -0.0043152
    3   0.0003538   0.0015002   0.0017809   0.0012858   0.0040871  -0.0010286
            7           8           9          10          11          12
    1   0.0011942   0.0009081  -0.0026833  -0.0076056   0.0001940  -0.0006756
    2   0.0038462  -0.0064547  -0.0095034   0.0148353   0.0017880  -0.0169987
    3   0.0012459  -0.0035456  -0.0013291  -0.0032494  -0.0008849  -0.0015380
           13          14          15          16          17          18
    1  -0.0004979  -0.0035069   0.0002216  -0.0022447  -0.0021762   0.0022471
    2   0.0073306   0.0030238  -0.0030293  -0.0025918  -0.0035907   0.0010115
    3   0.0037527  -0.0023200   0.0026497  -0.0036140   0.0046412   0.0039244
           19          20          21          22          23          24
    1   0.0023620   0.0032152   0.0028095  -0.0010884   0.0050224  -0.0019006
    2  -0.0026053   0.0035780   0.0021152  -0.0017907   0.0125336   0.0030079
    3  -0.0012854   0.0000476  -0.0008456  -0.0045313   0.0030018   0.0052765
           25          26          27          28          29          30
    1  -0.0067820  -0.0003746  -0.0025970   0.0024243   0.0027630  -0.0031273
    2  -0.0094761  -0.0039504  -0.0035202  -0.0021162   0.0020815   0.0042397
    3  -0.0092744   0.0019213  -0.0014319   0.0041105  -0.0021185   0.0020532
           31          32          33          34          35          36
    1  -0.0008041  -0.0020811  -0.0028785   0.0031392   0.0239736  -0.0332537
    2  -0.0038723  -0.0030409   0.0052706   0.0019315   0.0182745  -0.0046286
    3   0.0043656  -0.0046205   0.0010272  -0.0017659   0.0045191  -0.0013238
           37          38          39          40          41          42
    1   0.0256135  -0.0318399   0.0004756   0.0017909   0.0011741   0.0291707
    2   0.0143146  -0.0119029   0.0010319  -0.0115320  -0.0143128   0.0166924
    3   0.0027947  -0.0022598   0.0002030  -0.0022685  -0.0036570   0.0026993
           43          44          45          46          47          48
    1  -0.0321940   0.0283338  -0.0310514  -0.0003025   0.0000222   0.0315585
    2  -0.0164570   0.0135213  -0.0089229   0.0022054  -0.0035214   0.0096904
    3  -0.0029508   0.0020534  -0.0016847   0.0004341  -0.0004637   0.0015652
           49          50          51          52          53          54
    1  -0.0252471  -0.0000711   0.0115415   0.0039000   0.0001263  -0.0010923
    2  -0.0152860  -0.0040815   0.0035004  -0.0042060   0.0002075  -0.0028711
    3  -0.0023011  -0.0006063   0.0004761  -0.0005821   0.0000443  -0.0003481
           55          56          57          58          59          60
    1   0.0007189   0.0010233   0.0008180  -0.0009681  -0.0035253   0.0015069
    2   0.0004323  -0.0047405  -0.0018330  -0.0065471   0.0025528   0.0001839
    3   0.0000538  -0.0007405  -0.0000931  -0.0021358   0.0006061   0.0031948
           61          62          63          64          65          66
    1   0.0015594  -0.0011247  -0.0029358   0.0013811   0.0014633  -0.0020096
    2   0.0015697  -0.0072759   0.0020385   0.0007650   0.0022509   0.0080711
    3  -0.0026611  -0.0020582   0.0003114   0.0041861  -0.0028673   0.0012087
           67          68          69          70          71          72
    1   0.0038372   0.0000355   0.0001427   0.0041347  -0.0007951   0.0004956
    2  -0.0026093  -0.0012913  -0.0006889   0.0078203  -0.0005402   0.0003167
    3  -0.0003313   0.0011942  -0.0014028   0.0011746  -0.0001237  -0.0009054
           73          74          75          76
    1   0.0004938  -0.1547520   0.2059032  -0.0474186
    2   0.0001018  -0.0092582   0.0083959  -0.0026645
    3   0.0009141  -0.0038567   0.0050940  -0.0007475
 Max gradient component =       2.059E-01
 RMS gradient           =       1.927E-02
 Gradient time:  CPU 100.26 s  wall 9.64 s
 Geometry Optimization Parameters
   NAtoms,    NIC,     NZ,  NCons,   NDum,   NFix, NCnnct, MaxDiis
       76     570       0       0       0       0       0       0


** GEOMETRY OPTIMIZATION IN DELOCALIZED INTERNAL COORDINATES **
   Searching for a Minimum

   Optimization Cycle:   1

                       Coordinates (Angstroms)
     ATOM                X               Y               Z
      1  C        -0.0681492808   -0.9505094064   -0.0964617333
      2  C        -1.2789455169   -1.6017861141   -0.2763323614
      3  C        -2.5533877838   -0.9528882840   -0.1526985472
      4  C        -3.8187743579   -1.5021531730   -0.3389123087
      5  C        -4.9855517881   -0.6525565902   -0.1309504031
      6  C        -6.2991349801   -1.0459655673   -0.2453624116
      7  H        -1.2646136032   -2.6669736891   -0.5246768922
      8  H        -2.5165620142    0.1093295925    0.1258624267
      9  H        -4.7660473896    0.3740545278    0.1808989141
     10  C        -7.5186704685   -0.2474030595   -0.0091149694
     11  H        -6.4824789424   -2.1020285403   -0.4733124256
     12  C        -7.6627348822    1.0706564405   -0.3864821630
     13  C        -8.9344391675    1.8787725207   -0.1056475200
     14  C       -10.1768883188    1.0140053358    0.2093345074
     15  H        -9.1387626310    2.5399581272   -0.9696219556
     16  H        -8.7369595480    2.5654684785    0.7468012685
     17  C        -9.7933290856   -0.0959437835    1.2101455485
     18  H       -10.5609660780    0.5645766941   -0.7249881323
     19  H       -10.9891092364    1.6435625276    0.6158766248
     20  C        -8.6886527976   -1.0560689074    0.6556090369
     21  H       -10.6768133828   -0.6979765583    1.4931529824
     22  H        -9.4197583503    0.3766060647    2.1399228656
     23  C        -6.5951301756    1.8672622931   -1.1302046555
     24  H        -5.8693776747    1.2210607529   -1.6455396843
     25  H        -6.0228278242    2.5300134796   -0.4501931059
     26  H        -7.0691158211    2.5271566099   -1.8797024856
     27  C        -9.3194387511   -2.0301724621   -0.3988697828
     28  H        -9.7499566761   -1.4779827579   -1.2501924104
     29  H       -10.1213786683   -2.6290376720    0.0694998401
     30  H        -8.5723339669   -2.7342920254   -0.8034904345
     31  C        -8.1602929266   -1.8990370450    1.8645548356
     32  H        -7.6661123379   -1.2494472139    2.6072415192
     33  H        -7.4329674270   -2.6669329048    1.5541625410
     34  H        -9.0032698050   -2.4119077478    2.3622276335
     35  C         1.2479088508   -1.5386611853   -0.1977923983
     36  C         2.3661619246   -0.7190520404   -0.0177558945
     37  C         3.7461058742   -1.0838911117   -0.0896078588
     38  C         4.7988249602   -0.1906665302    0.0819607505
     39  H         4.0030087065   -2.1286208747   -0.2990912863
     40  H         2.1650884854    0.3389015912    0.1994287966
     41  H        -0.0986794070    0.1210231714    0.1429502362
     42  C         6.1757166784   -0.5686130911    0.0069854865
     43  C         7.3064473694    0.2409440519    0.1408061669
     44  C         8.6108936522   -0.3760233659    0.0444607220
     45  C         9.8389438365    0.2557997114    0.1442433622
     46  H         9.8627431295    1.3368448370    0.3098844149
     47  H         8.6139859572   -1.4615814686   -0.1237770968
     48  C        11.0914121038   -0.4450485547    0.0432342519
     49  C        12.3761089380    0.0723655180    0.1261036099
     50  H        11.0101578454   -1.5286856983   -0.1200065513
     51  C        13.5086098676   -0.8487193204   -0.0033208822
     52  C        14.8301589471   -0.5249939625    0.0473160029
     53  H        15.1815210464    0.4994162900    0.1937338374
     54  H        13.2375576268   -1.9020458690   -0.1548668579
     55  H        15.6040708859   -1.2884330177   -0.0591378424
     56  H         4.5481616028    0.8566065931    0.2858984435
     57  H         6.3621056886   -1.6350755978   -0.1801436296
     58  C        -4.0345842752   -2.9550059963   -0.7465281349
     59  H        -3.0895685379   -3.4917311046   -0.9054608317
     60  H        -4.6178909480   -3.0199175510   -1.6830124193
     61  H        -4.6052023803   -3.5047458141    0.0250379618
     62  C         1.3630389608   -3.0291353008   -0.5033802756
     63  H         2.4055952785   -3.3733792641   -0.5294152604
     64  H         0.9067398148   -3.2710301008   -1.4807134481
     65  H         0.8324373467   -3.6298776007    0.2575321560
     66  C         7.2198002646    1.7443480665    0.3820094955
     67  H         6.1823660599    2.1020336817    0.4302538488
     68  H         7.7275309789    2.3033421725   -0.4253467048
     69  H         7.7161466176    2.0250794190    1.3288362292
     70  C        12.6732046800    1.5490570472    0.3438192659
     71  H        11.7611260627    2.1563505967    0.4254514005
     72  H        13.2746589831    1.9571256199   -0.4894343935
     73  H        13.2629455899    1.7017981104    1.2666121176
     74  O        -0.1587028371    2.6331697020   -0.1062837919
     75  O        -1.3932574559    2.5787266366   -0.1058764439
     76  Fe       -3.3601118009    2.5020279470   -0.1045701838
   Point Group: c1    Number of degrees of freedom:   222


   Energy is  -2617.877586437


 Attempting to Generate Delocalized Internal Coordinates

222 Hessian modes will be used to form the next step
  Hessian Eigenvalues:
     0.002000    0.002000    0.003515    0.004499    0.004716    0.005652
     0.005762    0.005859    0.005871    0.005964    0.006277    0.008626
     0.008725    0.009418    0.010459    0.012489    0.013502    0.013582
     0.013595    0.013742    0.014405    0.015013    0.016295    0.016342
     0.016446    0.017265    0.017278    0.017780    0.018466    0.018549
     0.018686    0.019106    0.020292    0.020423    0.020617    0.020644
     0.020706    0.020804    0.020875    0.020987    0.021028    0.021312
     0.022555    0.022659    0.022793    0.023568    0.024066    0.024437
     0.026619    0.027491    0.027491    0.028383    0.028935    0.029324
     0.039471    0.040795    0.046441    0.048094    0.050894    0.051715
     0.052973    0.053192    0.054690    0.055269    0.057516    0.058080
     0.059893    0.067190    0.068008    0.069147    0.069199    0.069223
     0.069241    0.071389    0.071433    0.071481    0.071912    0.076535
     0.078233    0.079470    0.082130    0.083119    0.094979    0.096482
     0.096772    0.101842    0.108925    0.112142    0.116366    0.121734
     0.131164    0.133135    0.157855    0.159741    0.159998    0.159998
     0.160000    0.160000    0.160000    0.160000    0.160000    0.160000
     0.160000    0.160000    0.160000    0.160000    0.160000    0.160000
     0.160000    0.160000    0.160000    0.160000    0.160000    0.160000
     0.160000    0.160000    0.160000    0.160000    0.160000    0.160000
     0.160000    0.160000    0.160000    0.162192    0.168588    0.179808
     0.187620    0.195347    0.204579    0.217367    0.220000    0.220000
     0.220000    0.220000    0.220000    0.220000    0.220001    0.220001
     0.224540    0.226940    0.242482    0.249998    0.249998    0.249998
     0.250000    0.250000    0.250000    0.250000    0.257299    0.259290
     0.261740    0.263611    0.271824    0.276310    0.286754    0.291112
     0.293694    0.298121    0.298812    0.299557    0.301810    0.311834
     0.323574    0.325165    0.328281    0.329237    0.330322    0.330348
     0.330548    0.330592    0.330650    0.330832    0.330923    0.330939
     0.331046    0.331137    0.331160    0.331205    0.331207    0.331307
     0.332954    0.333002    0.334318    0.334318    0.336739    0.336890
     0.338072    0.338154    0.338284    0.338403    0.338461    0.338570
     0.338645    0.338788    0.338876    0.341219    0.341290    0.341474
     0.343576    0.343635    0.343716    0.344859    0.345486    0.359406
     0.362836    0.387463    0.388994    0.396726    0.397542    0.410197
     0.411094    0.450418    0.459382    0.460982    0.461073    0.465348
     0.471065    0.477644    0.482614    0.486873    0.526328    0.868603

 Minimum Search - Taking Simple RFO Step
 Searching for Lamda that Minimizes Along All modes
 Value Taken    Lamda =  -0.05655486
 Calculated Step too Large.  Step scaled by  0.776930
 Step Taken.  Stepsize is  0.300000

                             Maximum     Tolerance    Cnvgd?
         Gradient           0.065736      0.000300      NO
         Displacement       0.086968      0.001200      NO
         Energy change     *********      0.000001      NO


 New Cartesian Coordinates Obtained by Inverse Iteration

 Displacement from previous Coordinates is:  6.468116
 ----------------------------------------------------------------
             Standard Nuclear Orientation (Angstroms)
    I     Atom           X                Y                Z
 ----------------------------------------------------------------
    1      C      -0.0352588574    -1.3991983580    -0.0911536062
    2      C      -1.2966339788    -1.9760233788    -0.2873955420
    3      C      -2.5193506584    -1.2477458285    -0.1510674411
    4      C      -3.8344934491    -1.6961692404    -0.3468945695
    5      C      -4.9161327198    -0.7527893814    -0.1321541121
    6      C      -6.2652694620    -1.0272380475    -0.2471947547
    7      H      -1.3561682324    -3.0367726232    -0.5645361969
    8      H      -2.4083679336    -0.1850210251     0.1467547649
    9      H      -4.6064875766     0.2568680318     0.1952596208
   10      C      -7.3975506094    -0.1269973693    -0.0028791615
   11      H      -6.5447248897    -2.0622707094    -0.4817718233
   12      C      -7.4120918014     1.2112306512    -0.3678183742
   13      C      -8.6002298982     2.1297155161    -0.0841779820
   14      C      -9.9216301058     1.3838088894     0.2196990186
   15      H      -8.7359585482     2.8220551263    -0.9426020574
   16      H      -8.3340942502     2.7856467007     0.7804640110
   17      C      -9.6493751788     0.2314368282     1.2097077074
   18      H     -10.3490916870     0.9854361408    -0.7245804254
   19      H     -10.6707855198     2.0887433634     0.6342033124
   20      C      -8.6420789324    -0.8301470978     0.6474025249
   21      H     -10.5916141942    -0.2860764015     1.4852919332
   22      H      -9.2335149152     0.6569085244     2.1505015860
   23      C      -6.2753936883     1.9104627011    -1.1024047585
   24      H      -5.6076354112     1.2091397869    -1.6360736095
   25      H      -5.6561603764     2.5186060468    -0.3943439370
   26      H      -6.6793945089     2.6319039727    -1.8415992385
   27      C      -9.3587523441    -1.7284317338    -0.4231209786
   28      H      -9.7354221300    -1.1278219663    -1.2742369087
   29      H     -10.2186731078    -2.2532375284     0.0413382939
   30      H      -8.6809739489    -2.5035500328    -0.8360328925
   31      C      -8.1975004789    -1.7336833940     1.8493503314
   32      H      -7.6440901695    -1.1416568792     2.6074217836
   33      H      -7.5464347261    -2.5734829113     1.5339754864
   34      H      -9.0923700556    -2.1686214105     2.3402262833
   35      C       1.2506623251    -2.0288106998    -0.2126758155
   36      C       2.3786294930    -1.1977726517    -0.0127732643
   37      C       3.7505346852    -1.5280610569    -0.0992927967
   38      C       4.7618568743    -0.5717830945     0.0898116240
   39      H       4.0439193723    -2.5584606490    -0.3351002120
   40      H       2.1637130436    -0.1352331806     0.2301628989
   41      H       0.0106645138    -0.3196387522     0.1817256452
   42      C       6.1387909498    -0.8645281180    -0.0015485064
   43      C       7.2016003567     0.0482143791     0.1472110839
   44      C       8.5327777833    -0.4513480620     0.0320512072
   45      C       9.6924756497     0.3117903433     0.1420522054
   46      H       9.6079557817     1.3840457905     0.3285249332
   47      H       8.6372409260    -1.5243830983    -0.1585178909
   48      C      10.9855826893    -0.2529375794     0.0210926475
   49      C      12.1997421968     0.4270071030     0.1134517550
   50      H      11.0249399494    -1.3311071106    -0.1635459581
   51      C      13.4213057938    -0.3435801321    -0.0370868314
   52      C      14.6831289581     0.1576348060     0.0201470747
   53      H      14.8917660920     1.2170187049     0.1873714980
   54      H      13.2887574172    -1.4166825451    -0.2096969466
   55      H      15.5521014002    -0.4923720736    -0.1024314648
   56      H       4.4524745469     0.4603432544     0.3163861377
   57      H       6.3994538301    -1.9085499578    -0.2130801373
   58      C      -4.1660687108    -3.1197603603    -0.7685861065
   59      H      -3.2651687165    -3.7350570814    -0.9304049132
   60      H      -4.7507868816    -3.1281901875    -1.7107633425
   61      H      -4.7841713287    -3.6285396594    -0.0002264723
   62      C       1.3461866373    -3.5096067463    -0.5570752489
   63      H       2.3859005126    -3.8721080089    -0.5964811437
   64      H       0.8830022663    -3.7191357661    -1.5439127659
   65      H       0.8080221903    -4.1259451924     0.1920048187
   66      C       6.9772922483     1.5281366976     0.4181620830
   67      H       5.9079419994     1.7923659822     0.4772925584
   68      H       7.4257898672     2.1505333078    -0.3800526656
   69      H       7.4483018657     1.8366627085     1.3708708011
   70      C      12.3010264575     1.9156373168     0.3596744288
   71      H      11.3204644543     2.4013109345     0.4554910431
   72      H      12.8415187463     2.4145211783    -0.4643994196
   73      H      12.8696250633     2.1244183441     1.2834144914
   74      O       0.1386203883     2.1991531851     0.0062857283
   75      O      -1.1632280808     2.2237195098    -0.0126333855
   76      Fe     -3.0402839482     2.2774975413    -0.0288851312
 ----------------------------------------------------------------
 Molecular Point Group                 C1    NOp =  1
 Largest Abelian Subgroup              C1    NOp =  1
 Nuclear Repulsion Energy =  3323.6546942181 hartrees
 There are      136 alpha and      132 beta electrons
 Applying Cartesian multipole field
    Component          Value
    ---------          -----
     (2,0,0)        1.00000E-12
     (0,2,0)        2.00000E-11
     (0,0,2)       -3.00000E-11
 Nucleus-field energy     =     0.0000001010 hartrees
 Requested basis set is VDZ
 There are 258 shells and 402 basis functions
 A cutoff of  1.0D-12 yielded  14639 shell pairs
 There are     36285 function pairs (     36676 Cartesian)
 Smallest overlap matrix eigenvalue = 8.44E-04
 Guess MOs from SCF MO coefficient file

 -----------------------------------------------------------------------
  General SCF calculation program by
  Eric Jon Sundstrom, Paul Horn, Yuezhi Mao, Dmitri Zuev, Alec White,
  David Stuck, Shaama M.S., Shane Yost, Joonho Lee, David Small,
  Daniel Levine, Susi Lehtola, Hugh Burton, Evgeny Epifanovsky
 -----------------------------------------------------------------------
 Exchange:  B88      Correlation:  LYP
 Using SG-1 standard quadrature grid
 using 12 threads for integral computing
 -------------------------------------------------------
 OpenMP Integral computing Module                
 Release: version 1.0, May 2013, Q-Chem Inc. Pittsburgh 
 -------------------------------------------------------
 -------------------------------------------------------
 OpenMP BLAS3 based DFT computing Module                
 Release: version 1.0, May 2013, Q-Chem Inc. Pittsburgh 
 -------------------------------------------------------
 A unrestricted SCF calculation will be
 performed using DIIS, GDM
 SCF converges when RMS gradient is below 1.0e-08
 ---------------------------------------
  Cycle       Energy         DIIS error
 ---------------------------------------
    1   -2617.7236853958      1.12e-03  
    2   -2612.0956101166      6.30e-03  Done DIIS. Switching to GDM
 ---------------------------------------
  Cycle       Energy        RMS Gradient
 ---------------------------------------
    1   -2612.0956101166      4.93e+00   Descent step
    2   -2613.6621387375      1.16e+00   Descent step
    3   -2614.6367677193      2.65e+00   Descent step
    4   -2615.4566314636      4.60e-01   Descent step
    5   -2615.8101593940      7.17e-01   Descent step
    6   -2615.7923664943      1.50e+00  Line search: overstep
    7   -2615.9520913658      3.02e-01   Descent step
    8   -2616.0972438857      1.04e+00   Descent step
    9   -2615.9207884722      2.32e+00  Line search: overstep
   10   -2616.2291175460      2.43e-01   Descent step
   11   -2616.4449180404      2.99e-01   Descent step
   12   -2616.5204369362      8.83e-01   Descent step
   13   -2616.5517661490      1.18e+00   Descent step
   14   -2616.5232386156      1.89e+00  Line search: overstep
   15   -2616.7542115066      4.23e-01   Descent step
   16   -2616.8361964294      6.55e-01   Descent step
   17   -2617.0084298348      8.95e-01   Descent step
   18   -2616.7131171450      1.68e+00  Line search: overstep
   19   -2617.0864295104      1.88e-01   Descent step
   20   -2617.0505841442      9.97e-01  Line search: overstep
   21   -2617.1433356184      6.14e-01   Descent step
   22   -2616.8750280739      1.01e+00  Line search: overstep
   23   -2617.1912922158      2.87e-01   Descent step
   24   -2616.9958842074      1.46e+00  Line search: overstep
   25   -2617.2314801202      3.72e-01   Descent step
   26   -2617.0836637132      7.12e-01  Line search: overstep
   27   -2617.2731051714      3.57e-01   Descent step
   28   -2616.8864966002      2.15e+00  Line search: overstep
   29   -2617.3088917508      1.94e-01   Descent step
   30   -2617.2685432802      6.03e-01  Line search: overstep
   31   -2617.3542044648      4.94e-01   Descent step
   32   -2616.8349276609      2.57e+00  Line search: overstep
   33   -2617.3922133251      1.73e-01   Descent step
   34   -2617.4386607055      4.02e-01   Descent step
   35   -2617.2077732735      9.15e-01  Line search: overstep
   36   -2617.5204007056      1.05e-01   Descent step
   37   -2617.5907288580      2.94e-01   Descent step
   38   -2617.4229639932      8.47e-01  Line search: overstep
   39   -2617.6343864548      2.54e-01   Descent step
   40   -2617.1478383258      1.01e+00  Line search: overstep
   41   -2617.6504591892      1.71e-01   Descent step
   42   -2617.4948695886      5.68e-01  Line search: overstep
   43   -2617.6653266656      2.22e-01   Descent step
   44   -2617.0918804984      1.30e+00  Line search: overstep
   45   -2617.6818357039      1.29e-01   Descent step
   46   -2617.6141408979      7.49e-01  Line search: overstep
   47   -2617.6986090160      2.40e-01   Descent step
   48   -2617.1212864390      1.23e+00  Line search: overstep
   49   -2617.7192487944      1.11e-01   Descent step
   50   -2617.6994851513      8.37e-01  Line search: overstep
   51   -2617.7393179172      2.68e-01   Descent step
   52   -2617.1981008833      1.43e+00  Line search: overstep
   53   -2617.7609888751      9.10e-02   Dog-leg BFGS step
   54   -2617.7379401776      6.81e-01  Line search: overstep
   55   -2617.7769568917      2.60e-01   Descent step
   56   -2617.2749603376      1.66e+00  Line search: overstep
   57   -2617.7935895240      1.05e-01   Dog-leg BFGS step
   58   -2617.7885883320      3.53e-01  Line search: overstep
   59   -2617.8103516360      2.36e-01   Descent step
   60   -2617.3232790590      8.90e-01  Line search: overstep
   61   -2617.8232826750      8.08e-02   Dog-leg BFGS step
   62   -2617.8421620526      1.58e-01   Normal BFGS step
   63   -2617.8464157270      7.92e-02   Descent step
   64   -2617.7251950118      5.78e-01  Line search: overstep
   65   -2617.8571917339      2.21e-01   Descent step
   66   -2617.3934369086      5.99e-01  Line search: overstep
   67   -2617.8639331979      7.05e-02   Dog-leg BFGS step
   68   -2617.8384959408      3.83e-01  Line search: overstep
   69   -2617.8725208091      1.04e-01   Normal BFGS step
   70   -2617.8801524821      6.37e-02   Normal BFGS step
   71   -2617.8836600680      1.41e-01   Normal BFGS step
   72   -2617.8840904659      8.31e-02   Normal BFGS step
   73   -2617.8866677442      6.50e-02   Normal BFGS step
   74   -2617.8853938960      1.38e-01  Line search: overstep
   75   -2617.8920881742      4.88e-02   Normal BFGS step
   76   -2617.8915290652      3.84e-02  Line search: overstep
   77   -2617.8942403132      3.83e-02   Normal BFGS step
   78   -2617.8936852178      3.32e-02  Line search: overstep
   79   -2617.8948305055      1.24e-02   Normal BFGS step
   80   -2617.8951959849      1.01e-02   Normal BFGS step
   81   -2617.8953593086      2.27e-02   Normal BFGS step
   82   -2617.8957076795      1.48e-02   Normal BFGS step
   83   -2617.8956607712      1.83e-02  Line search: overstep
   84   -2617.8958622415      5.70e-03   Normal BFGS step
   85   -2617.8959242114      7.61e-03   Normal BFGS step
   86   -2617.8961011553      7.39e-03   Normal BFGS step
   87   -2617.8961682100      7.64e-03   Normal BFGS step
   88   -2617.8963667583      8.43e-03   Normal BFGS step
   89   -2617.8965704717      1.73e-02   Normal BFGS step
   90   -2617.8963254364      1.96e-02  Line search: overstep
   91   -2617.8967464760      1.15e-02   Normal BFGS step
   92   -2617.8968981574      3.31e-02   Normal BFGS step
   93   -2617.8970946127      4.40e-02   Normal BFGS step
   94   -2617.8972412465      4.11e-02   Normal BFGS step
   95   -2617.8976492800      2.02e-02   Normal BFGS step
   96   -2617.8976299279      1.40e-02  Line search: overstep
   97   -2617.8979851741      1.11e-02   Normal BFGS step
   98   -2617.8980699988      2.46e-02   Normal BFGS step
   99   -2617.8969957238      6.93e-02  Line search: overstep
  100   -2617.8982692627      1.15e-02   Normal BFGS step
  101   -2617.8980360505      2.00e-02  Line search: overstep
  102   -2617.8984491805      9.69e-03   Normal BFGS step
  103   -2617.8986220009      1.11e-02   Normal BFGS step
  104   -2617.8986658701      1.88e-02   Normal BFGS step
  105   -2617.8988127348      8.40e-03   Normal BFGS step
  106   -2617.8988401266      7.54e-03   Normal BFGS step
  107   -2617.8988990572      8.49e-03   Normal BFGS step
  108   -2617.8988947943      4.12e-03  Line search: overstep
  109   -2617.8989180747      3.31e-03   Normal BFGS step
  110   -2617.8989198626      1.47e-03   Normal BFGS step
  111   -2617.8989242479      7.83e-04   Normal BFGS step
  112   -2617.8989249434      8.48e-04   Normal BFGS step
  113   -2617.8989265561      1.20e-03   Normal BFGS step
  114   -2617.8989270417      7.40e-04   Normal BFGS step
  115   -2617.8989270206      3.01e-03   Normal BFGS step
  116   -2617.8989224260      4.97e-03  Line search: overstep
  117   -2617.8989279929      7.51e-04   Normal BFGS step
  118   -2617.8989248604      8.92e-04  Line search: overstep
  119   -2617.8989289330      4.63e-04   Normal BFGS step
  120   -2617.8989290001      9.81e-04   Normal BFGS step
  121   -2617.8989297170      4.10e-04   Normal BFGS step
  122   -2617.8989296684      4.79e-04  Line search: overstep
  123   -2617.8989299973      3.28e-04   Normal BFGS step
  124   -2617.8989303907      2.45e-04   Normal BFGS step
  125   -2617.8989307195      9.00e-04   Normal BFGS step
  126   -2617.8989309526      3.57e-04   Normal BFGS step
  127   -2617.8989311286      2.71e-04   Normal BFGS step
  128   -2617.8989311761      5.63e-04   Normal BFGS step
  129   -2617.8989314662      1.34e-04   Normal BFGS step
  130   -2617.8989314662      1.81e-04   Normal BFGS step
  131   -2617.8989316234      2.62e-04   Normal BFGS step
  132   -2617.8989314173      8.67e-04  Line search: overstep
  133   -2617.8989316703      7.78e-05   Normal BFGS step
  134   -2617.8989316502      1.99e-04  Line search: overstep
  135   -2617.8989316935      6.98e-05   Normal BFGS step
  136   -2617.8989317135      7.19e-05   Normal BFGS step
  137   -2617.8989317375      6.51e-05   Normal BFGS step
  138   -2617.8989317566      5.27e-05   Normal BFGS step
  139   -2617.8989317723      6.67e-05   Normal BFGS step
  140   -2617.8989317855      4.49e-05   Normal BFGS step
  141   -2617.8989317912      7.61e-05   Normal BFGS step
  142   -2617.8989317926      1.92e-04   Normal BFGS step
  143   -2617.8989317299      5.93e-04  Line search: overstep
  144   -2617.8989317970      4.56e-05   Normal BFGS step
  /scratch/qcdevops/jenkins/workspace/build_qchem_linux_distrib/tags/qc511/qchem/libgscf/libgscf/opt/gdm.C::WARNING energy changes are now smaller than effective accuracy.
  /scratch/qcdevops/jenkins/workspace/build_qchem_linux_distrib/tags/qc511/qchem/libgscf/libgscf/opt/gdm.C::        calculation will continue, but THRESH should be increased
  /scratch/qcdevops/jenkins/workspace/build_qchem_linux_distrib/tags/qc511/qchem/libgscf/libgscf/opt/gdm.C::        or SCF_CONVERGENCE decreased. 
  /scratch/qcdevops/jenkins/workspace/build_qchem_linux_distrib/tags/qc511/qchem/libgscf/libgscf/opt/gdm.C::        effective_thresh = 9.72e-09
  145   -2617.8989317892      7.91e-05   Normal BFGS step
  146   -2617.8989318028      4.57e-05   Normal BFGS step
  147   -2617.8989318013      3.07e-05   Normal BFGS step
  148   -2617.8989318062      2.35e-05   Normal BFGS step
  149   -2617.8989318046      3.40e-05   Normal BFGS step
  150   -2617.8989318083      1.46e-05   Normal BFGS step
  151   -2617.8989318079      2.77e-05   Normal BFGS step
  152   -2617.8989318091      2.76e-05   Normal BFGS step
  /scratch/qcdevops/jenkins/workspace/build_qchem_linux_distrib/tags/qc511/qchem/libgscf/libgscf/opt/gdm.C::WARNING energy changes are now smaller than effective accuracy.
  /scratch/qcdevops/jenkins/workspace/build_qchem_linux_distrib/tags/qc511/qchem/libgscf/libgscf/opt/gdm.C::        calculation will continue, but THRESH should be increased
  /scratch/qcdevops/jenkins/workspace/build_qchem_linux_distrib/tags/qc511/qchem/libgscf/libgscf/opt/gdm.C::        or SCF_CONVERGENCE decreased. 
  /scratch/qcdevops/jenkins/workspace/build_qchem_linux_distrib/tags/qc511/qchem/libgscf/libgscf/opt/gdm.C::        effective_thresh = 9.72e-09
  153   -2617.8989318055      9.61e-05   Normal BFGS step
  154   -2617.8989318093      4.57e-05   Normal BFGS step
  /scratch/qcdevops/jenkins/workspace/build_qchem_linux_distrib/tags/qc511/qchem/libgscf/libgscf/opt/gdm.C::WARNING energy changes are now smaller than effective accuracy.
  /scratch/qcdevops/jenkins/workspace/build_qchem_linux_distrib/tags/qc511/qchem/libgscf/libgscf/opt/gdm.C::        calculation will continue, but THRESH should be increased
  /scratch/qcdevops/jenkins/workspace/build_qchem_linux_distrib/tags/qc511/qchem/libgscf/libgscf/opt/gdm.C::        or SCF_CONVERGENCE decreased. 
  /scratch/qcdevops/jenkins/workspace/build_qchem_linux_distrib/tags/qc511/qchem/libgscf/libgscf/opt/gdm.C::        effective_thresh = 9.72e-09
  155   -2617.8989318059      5.17e-05   Normal BFGS step
  156   -2617.8989318099      1.55e-05   Normal BFGS step
  157   -2617.8989318076      3.55e-05   Normal BFGS step
  158   -2617.8989318105      3.99e-06   Normal BFGS step
  159   -2617.8989318104      7.26e-06   Normal BFGS step
  160   -2617.8989318106      4.07e-06   Normal BFGS step
  161   -2617.8989318106      6.77e-06   Normal BFGS step
  162   -2617.8989318107      3.69e-06   Normal BFGS step
  163   -2617.8989318107      1.65e-05   Normal BFGS step
  164   -2617.8989318105      4.17e-05   Normal BFGS step
  165   -2617.8989318105      1.11e-05   Normal BFGS step
  166   -2617.8989318108      8.69e-06   Normal BFGS step
  167   -2617.8989318108      4.97e-06   Normal BFGS step
  168   -2617.8989318110      3.84e-06   Normal BFGS step
  169   -2617.8989318110      4.13e-06   Normal BFGS step
  170   -2617.8989318110      2.59e-06   Normal BFGS step
  171   -2617.8989318110      3.65e-06   Normal BFGS step
  172   -2617.8989318111      2.61e-06   Normal BFGS step
  173   -2617.8989318109      2.41e-05   Normal BFGS step
  174   -2617.8989318111      2.52e-06   Normal BFGS step
  175   -2617.8989318110      8.45e-06   Normal BFGS step
  176   -2617.8989318111      1.66e-06   Normal BFGS step
  177   -2617.8989318111      3.20e-06   Normal BFGS step
  178   -2617.8989318111      6.63e-07   Normal BFGS step
  179   -2617.8989318111      1.33e-06   Normal BFGS step
  180   -2617.8989318111      4.15e-07   Normal BFGS step
  181   -2617.8989318111      1.13e-06   Normal BFGS step
  182   -2617.8989318111      1.79e-06   Normal BFGS step
  183   -2617.8989318111      1.59e-05   Normal BFGS step
  184   -2617.8989318111      3.94e-07   Normal BFGS step
  185   -2617.8989318111      1.15e-06   Normal BFGS step
  186   -2617.8989318111      1.97e-07   Normal BFGS step
  187   -2617.8989318111      3.46e-07   Normal BFGS step
  188   -2617.8989318111      1.48e-07   Normal BFGS step
  189   -2617.8989318111      1.52e-07   Normal BFGS step
  190   -2617.8989318111      2.26e-07   Normal BFGS step
  191   -2617.8989318111      4.13e-07   Normal BFGS step
  192   -2617.8989318111      4.48e-07   Normal BFGS step
  193   -2617.8989318111      2.00e-06   Normal BFGS step
  194   -2617.8989318111      2.77e-07   Normal BFGS step
  195   -2617.8989318111      3.31e-07   Normal BFGS step
  196   -2617.8989318111      7.48e-08   Normal BFGS step
  197   -2617.8989318111      1.49e-07   Normal BFGS step
  198   -2617.8989318111      5.64e-08   Normal BFGS step
  199   -2617.8989318111      9.32e-08   Normal BFGS step
  200   -2617.8989318111      3.51e-08   Normal BFGS step
  201   -2617.8989318111      5.63e-08   Normal BFGS step
  202   -2617.8989318111      1.21e-07   Normal BFGS step
  203   -2617.8989318111      7.19e-07   Normal BFGS step
  204   -2617.8989318111      8.13e-08   Normal BFGS step
  205   -2617.8989318111      1.34e-07   Normal BFGS step
  206   -2617.8989318111      1.35e-08   Normal BFGS step
  207   -2617.8989318111      2.64e-08   Normal BFGS step
  208   -2617.8989318111      1.17e-08   Normal BFGS step
  /scratch/qcdevops/jenkins/workspace/build_qchem_linux_distrib/tags/qc511/qchem/libgscf/libgscf/opt/gdm.C::WARNING energy changes are now smaller than effective accuracy.
  /scratch/qcdevops/jenkins/workspace/build_qchem_linux_distrib/tags/qc511/qchem/libgscf/libgscf/opt/gdm.C::        calculation will continue, but THRESH should be increased
  /scratch/qcdevops/jenkins/workspace/build_qchem_linux_distrib/tags/qc511/qchem/libgscf/libgscf/opt/gdm.C::        or SCF_CONVERGENCE decreased. 
  /scratch/qcdevops/jenkins/workspace/build_qchem_linux_distrib/tags/qc511/qchem/libgscf/libgscf/opt/gdm.C::        effective_thresh = 9.72e-09
  209   -2617.8989318111      1.20e-08   Normal BFGS step
  /scratch/qcdevops/jenkins/workspace/build_qchem_linux_distrib/tags/qc511/qchem/libgscf/libgscf/opt/gdm.C::WARNING energy changes are now smaller than effective accuracy.
  /scratch/qcdevops/jenkins/workspace/build_qchem_linux_distrib/tags/qc511/qchem/libgscf/libgscf/opt/gdm.C::        calculation will continue, but THRESH should be increased
  /scratch/qcdevops/jenkins/workspace/build_qchem_linux_distrib/tags/qc511/qchem/libgscf/libgscf/opt/gdm.C::        or SCF_CONVERGENCE decreased. 
  /scratch/qcdevops/jenkins/workspace/build_qchem_linux_distrib/tags/qc511/qchem/libgscf/libgscf/opt/gdm.C::        effective_thresh = 9.72e-09
  210   -2617.8989318111      9.55e-09  Convergence criterion met
 ---------------------------------------
 SCF time:   CPU 12735.67s  wall 1142.00s 
<S^2> =          6.576555222
 SCF   energy in the final basis set =    -2617.8989318111
 Total energy in the final basis set =    -2617.8989318111
 
 --------------------------------------------------------------
 
                    Orbital Energies (a.u.)
 --------------------------------------------------------------
 
 Alpha MOs
 -- Occupied --
******* -29.730 -25.689 -25.686 -25.679 -19.039 -19.015 -10.143
-10.135 -10.134 -10.128 -10.127 -10.127 -10.126 -10.122 -10.122
-10.122 -10.119 -10.119 -10.119 -10.117 -10.116 -10.113 -10.111
-10.108 -10.106 -10.095 -10.094 -10.093 -10.093 -10.090 -10.089
-10.079 -10.078 -10.058 -10.055 -10.052 -10.051  -3.499  -2.328
 -2.320  -2.309  -1.234  -0.940  -0.935  -0.928  -0.919  -0.913
 -0.893  -0.874  -0.871  -0.862  -0.859  -0.843  -0.820  -0.814
[...]
    1  -0.0008188   0.0003750  -0.0004985   0.0001355   0.0002918   0.0000265
    2   0.0008890  -0.0006020   0.0011461   0.0009350  -0.0001538  -0.0003255
    3   0.0000775   0.0001290   0.0000620  -0.0004608  -0.0002105   0.0002321
           61          62          63          64          65          66
    1   0.0000876  -0.0002306  -0.0005380   0.0001341   0.0001862   0.0004904
    2   0.0002398  -0.0003105   0.0003086   0.0004574   0.0002381   0.0002721
    3   0.0002134   0.0001692   0.0001883   0.0003587  -0.0002315   0.0001864
           67          68          69          70          71          72
    1   0.0004624  -0.0004544  -0.0002353   0.0002319   0.0009465  -0.0007000
    2  -0.0003189  -0.0002840  -0.0003111   0.0000899  -0.0006598  -0.0003131
    3  -0.0001558   0.0006784  -0.0008895  -0.0000629   0.0000644   0.0008949
           73          74          75          76
    1  -0.0004516   0.0001994  -0.0029902   0.0048346
    2  -0.0001256  -0.0028766   0.0044781  -0.0048413
    3  -0.0009556  -0.0011682   0.0055334  -0.0024869
 Max gradient component =       5.533E-03
 RMS gradient           =       9.583E-04
 Gradient time:  CPU 104.03 s  wall 9.89 s
 Geometry Optimization Parameters
   NAtoms,    NIC,     NZ,  NCons,   NDum,   NFix, NCnnct, MaxDiis
       76     570       0       0       0       0       0       0

 Cartesian Hessian Update
 Hessian Updated using BFGS Update


** GEOMETRY OPTIMIZATION IN DELOCALIZED INTERNAL COORDINATES **
   Searching for a Minimum

   Optimization Cycle:  47

                       Coordinates (Angstroms)
     ATOM                X               Y               Z
      1  C         0.0081326588   -0.8928499350   -0.2039105366
      2  C        -1.2382013909   -1.5346417066   -0.3571682172
      3  C        -2.4690336927   -0.8313645008   -0.2121840332
      4  C        -3.7615140640   -1.2776462091   -0.5401768260
      5  C        -4.9051719876   -0.3785660809   -0.2888326934
      6  C        -6.2557359179   -0.7727934618   -0.4490816757
      7  H        -1.2577640271   -2.6062874993   -0.6125714557
      8  H        -2.3874228830    0.2014713058    0.1609752423
      9  H        -4.6961731349    0.4593141618    0.4370687716
     10  C        -7.4638490093   -0.1037961193    0.0501919260
     11  H        -6.4263142299   -1.7801663742   -0.8704059729
     12  C        -7.7581022004    1.2340711668   -0.1670258821
     13  C        -8.9660501990    1.9351042803    0.4524435427
     14  C       -10.0746845459    0.9613506218    0.9326553926
     15  H        -9.3812440585    2.6791765609   -0.2671611579
     16  H        -8.5980450654    2.5407601124    1.3239442194
     17  C        -9.4471484004   -0.2363067800    1.6800533470
     18  H       -10.6647756660    0.6062673959    0.0572005093
     19  H       -10.7880088237    1.5037354906    1.5923194944
     20  C        -8.4577556853   -1.0719970362    0.7993831157
     21  H       -10.2384502867   -0.9239720975    2.0566872437
     22  H        -8.9012037536    0.1398937216    2.5785104539
     23  C        -6.9197946876    2.1017416065   -1.1078218086
     24  H        -6.6130775772    1.5109156013   -2.0386596938
     25  H        -6.0535400087    2.6262714214   -0.5861031168
     26  H        -7.5105082091    2.9466244237   -1.5300693618
     27  C        -9.2411013210   -1.9192937964   -0.2646306896
     28  H        -9.8835501959   -1.2827075988   -0.9136868039
     29  H        -9.8964457279   -2.6559859954    0.2542963468
     30  H        -8.5554920049   -2.4959717954   -0.9279526811
     31  C        -7.6742799741   -2.0406042650    1.7518668406
     32  H        -7.0284250265   -1.4767976360    2.4642888357
     33  H        -7.0317372651   -2.7584254876    1.1927819443
     34  H        -8.3967805022   -2.6404796949    2.3510104721
     35  C         1.2913488186   -1.5212946495   -0.2728879005
     36  C         2.4416968215   -0.6809212347   -0.1581365068
     37  C         3.7918267248   -1.0814186177   -0.1869346010
     38  C         4.8783098857   -0.1722372367   -0.0694007151
     39  H         4.0373674367   -2.1495878295   -0.3027079347
     40  H         2.2475322733    0.3997898961   -0.0287284102
     41  H        -0.0100112861    0.2060194761   -0.0672761102
     42  C         6.2227159072   -0.5906169874   -0.0742171798
     43  C         7.3861582280    0.2355770685    0.0383995836
     44  C         8.6508927725   -0.4214384427    0.0708488060
     45  C         9.9059832358    0.2096289586    0.2044392121
     46  H         9.9400769551    1.3067063083    0.2800142221
     47  H         8.6447091246   -1.5218709472   -0.0032775838
     48  C        11.1237020446   -0.5169929004    0.2557677254
     49  C        12.4248743361    0.0177309004    0.4060526693
     50  H        11.0457756516   -1.6139808392    0.1733577464
     51  C        13.5331282220   -0.9300487373    0.4381665075
     52  C        14.8585467212   -0.6043883911    0.5778844004
     53  H        15.2134379988    0.4342508298    0.6764518517
     54  H        13.2631797187   -1.9948804459    0.3426123372
     55  H        15.6322937073   -1.3885014866    0.5950906992
     56  H         4.6395580051    0.8985112282    0.0399641076
     57  H         6.4004697220   -1.6756622879   -0.1665995104
     58  C        -4.0252550191   -2.6410907939   -1.1518040472
     59  H        -3.0947810760   -3.2046810028   -1.3608048578
     60  H        -4.5804319524   -2.5618732402   -2.1150896949
     61  H        -4.6528224838   -3.2660888939   -0.4726178810
     62  C         1.3941554536   -3.0280519674   -0.4608130202
     63  H         2.4343061518   -3.3998972515   -0.3983219361
     64  H         0.9938493745   -3.3316107692   -1.4558739710
     65  H         0.8031138512   -3.5710668156    0.3099179343
     66  C         7.2989781103    1.7519938451    0.1349518991
     67  H         6.2644777524    2.1295478097    0.0278961489
     68  H         7.9079038567    2.2400833518   -0.6576782527
     69  H         7.6867788673    2.1162104677    1.1128603414
     70  C        12.7048105216    1.5007582132    0.5340341023
     71  H        11.7922493628    2.1239168628    0.4973521244
     72  H        13.3809952109    1.8481560765   -0.2789247363
     73  H        13.2243173017    1.7252164468    1.4926548544
     74  O        -1.8650083953    2.1620307088   -2.0296637680
     75  O        -3.0271473113    1.4914534584   -1.9665407359
     76  Fe       -4.7304584240    1.3760223474   -1.5850804788
   Point Group: c1    Number of degrees of freedom:   222


   Energy is  -2617.940205933

 Hessian Updated using BFGS Update

222 Hessian modes will be used to form the next step
  Hessian Eigenvalues:
     0.001823    0.002165    0.002524    0.004202    0.005177    0.005770
     0.005826    0.005861    0.006267    0.006457    0.008576    0.009260
     0.010276    0.011765    0.012510    0.013522    0.013711    0.013765
     0.014091    0.014551    0.015191    0.016141    0.016464    0.016801
     0.017034    0.017456    0.017792    0.018395    0.018590    0.019502
     0.020129    0.020481    0.020660    0.020690    0.020769    0.020806
     0.020919    0.021011    0.021175    0.021650    0.022479    0.023003
     0.023582    0.024170    0.024237    0.024912    0.027463    0.027503
     0.027842    0.029488    0.029713    0.032556    0.033992    0.040690
     0.041267    0.046960    0.048099    0.048969    0.051466    0.051754
     0.053290    0.053515    0.054888    0.055190    0.057024    0.057800
     0.059812    0.065340    0.068224    0.069117    0.069224    0.069238
     0.069561    0.071351    0.071545    0.071678    0.072061    0.076842
     0.078515    0.078826    0.082624    0.084029    0.096715    0.099933
     0.107469    0.110344    0.118949    0.122058    0.128870    0.131777
     0.143130    0.154267    0.157986    0.158567    0.159295    0.159810
     0.159925    0.159950    0.159986    0.160000    0.160001    0.160001
     0.160005    0.160009    0.160013    0.160018    0.160030    0.160036
     0.160053    0.160068    0.160111    0.160162    0.160237    0.160277
     0.160355    0.160456    0.160840    0.160888    0.161186    0.162046
     0.163257    0.165467    0.175319    0.181860    0.188823    0.196875
     0.209996    0.217487    0.217933    0.220037    0.220105    0.220330
     0.221165    0.222350    0.224726    0.228716    0.229519    0.233760
     0.240677    0.241719    0.250038    0.250300    0.251130    0.255486
     0.258443    0.262170    0.262960    0.265914    0.267824    0.273831
     0.274569    0.276953    0.286286    0.291867    0.297967    0.298833
     0.301338    0.303785    0.308711    0.315575    0.321220    0.324570
     0.328418    0.329140    0.330055    0.330392    0.330566    0.330721
     0.330792    0.330878    0.330987    0.331035    0.331127    0.331242
     0.331306    0.331448    0.331502    0.332588    0.333067    0.333622
     0.334814    0.335951    0.338090    0.338201    0.338392    0.338506
     0.338559    0.338880    0.339136    0.339527    0.340297    0.340977
     0.342195    0.342997    0.343540    0.344539    0.345320    0.349173
     0.360134    0.364159    0.369807    0.371726    0.386695    0.391402
     0.402114    0.402750    0.408959    0.411997    0.417776    0.432336
     0.461741    0.465447    0.469425    0.477552    0.482318    0.488291
     0.517326    0.529278    0.536608    0.558427    0.891881    3.228221

 Minimum Search - Taking Simple RFO Step
 Searching for Lamda that Minimizes Along All modes
 Value Taken    Lamda =  -0.00183127
 Calculated Step too Large.  Step scaled by  0.581254
 Step Taken.  Stepsize is  0.300000

                             Maximum     Tolerance    Cnvgd?
         Gradient           0.003780      0.000300      NO
         Displacement       0.084600      0.001200      NO
         Energy change     -0.000638      0.000001      NO


 New Cartesian Coordinates Obtained by Inverse Iteration

 Displacement from previous Coordinates is:  1.080557
 ----------------------------------------------------------------
             Standard Nuclear Orientation (Angstroms)
    I     Atom           X                Y                Z
 ----------------------------------------------------------------
    1      C       0.0169727195    -0.8776266327    -0.1887823744
    2      C      -1.2307178044    -1.5127693785    -0.3267367265
    3      C      -2.4596497945    -0.8032735846    -0.1830765853
    4      C      -3.7510619181    -1.2662687453    -0.4957656603
    5      C      -4.9038537467    -0.3761693455    -0.2555211041
    6      C      -6.2512812036    -0.7726435434    -0.4292221230
    7      H      -1.2553979390    -2.5872636730    -0.5699779959
    8      H      -2.3852884353     0.2451291939     0.1637684977
    9      H      -4.6995790915     0.4731339780     0.4556128687
   10      C      -7.4694534042    -0.1067211525     0.0544334908
   11      H      -6.4121247705    -1.7833714520    -0.8452280613
   12      C      -7.7626089296     1.2285843117    -0.1786224141
   13      C      -8.9786337763     1.9370853347     0.4159485334
   14      C     -10.0933760313     0.9662639637     0.8881164174
   15      H      -9.3830054225     2.6726222522    -0.3182807570
   16      H      -8.6235965662     2.5534913823     1.2851173500
   17      C      -9.4765237664    -0.2231607742     1.6565412755
   18      H     -10.6665274584     0.6006560945     0.0059749998
   19      H     -10.8178857506     1.5126024335     1.5316792427
   20      C      -8.4744169732    -1.0686985167     0.7995006624
   21      H     -10.2747099852    -0.9058617541     2.0274583737
   22      H      -8.9436656984     0.1601444407     2.5596673590
   23      C      -6.9142184082     2.0847433142    -1.1186727785
   24      H      -6.6202384634     1.4847987913    -2.0483664882
   25      H      -6.0376348259     2.6016793511    -0.6032518475
   26      H      -7.4984312324     2.9351858886    -1.5383848367
   27      C      -9.2443705042    -1.9271357274    -0.2652842020
   28      H      -9.8631099811    -1.2967038349    -0.9428015259
   29      H      -9.9210020187    -2.6443160819     0.2535215877
   30      H      -8.5520240572    -2.5255376259    -0.9015237629
   31      C      -7.7077801106    -2.0272845644     1.7756471745
   32      H      -7.0813267697    -1.4540504385     2.4974810713
   33      H      -7.0476261244    -2.7469129026     1.2378943108
   34      H      -8.4421103113    -2.6251932657     2.3623667223
   35      C       1.2985957444    -1.5065187557    -0.2658565194
   36      C       2.4515232455    -0.6711138564    -0.1400801855
   37      C       3.7987886529    -1.0761472178    -0.1853741847
   38      C       4.8880889266    -0.1737947294    -0.0411070628
   39      H       4.0405965838    -2.1408567435    -0.3383302688
   40      H       2.2610840683     0.4072523667     0.0131689451
   41      H      -0.0074449380     0.2174747870    -0.0575943864
   42      C       6.2314261989    -0.5916196997    -0.0725852292
   43      C       7.3953419157     0.2293531140     0.0733714808
   44      C       8.6599577134    -0.4264986368     0.0614866762
   45      C       9.9136386110     0.2019109038     0.2183906307
   46      H       9.9426115008     1.2934103266     0.3511873787
   47      H       8.6566212799    -1.5210077461    -0.0728797553
   48      C      11.1345971700    -0.5192835336     0.2142915850
   49      C      12.4342389177     0.0144726583     0.3774584534
   50      H      11.0625011661    -1.6100216228     0.0704016808
   51      C      13.5479156368    -0.9255653269     0.3412797262
   52      C      14.8724149805    -0.5970155405     0.4809554574
   53      H      15.2196926201     0.4375583868     0.6334128823
   54      H      13.2842336188    -1.9852153924     0.1885021568
   55      H      15.6526441597    -1.3736856720     0.4406147608
   56      H       4.6507876486     0.8919178923     0.1099844691
   57      H       6.4095256295    -1.6704804296    -0.2183784930
   58      C      -4.0015166490    -2.6404022171    -1.0897374604
   59      H      -3.0677993519    -3.2064741900    -1.2728305045
   60      H      -4.5363940470    -2.5752235355    -2.0654804011
   61      H      -4.6434640120    -3.2552451683    -0.4147000013
   62      C       1.3995676715    -3.0087744944    -0.4760096371
   63      H       2.4420036905    -3.3786682469    -0.4342702799
   64      H       0.9857713724    -3.3005332055    -1.4691511815
   65      H       0.8197620062    -3.5620724920     0.2959904247
   66      C       7.3072801277     1.7404002273     0.2395383269
   67      H       6.2712076418     2.1208563720     0.1678004653
   68      H       7.9012605818     2.2641374858    -0.5416689013
   69      H       7.7120390543     2.0636057005     1.2248590177
   70      C      12.7069175239     1.4893354914     0.5846978494
   71      H      11.7910859310     2.1085660619     0.5913920680
   72      H      13.3740842638     1.8855814030    -0.2131162473
   73      H      13.2341881372     1.6625690993     1.5494387562
   74      O      -1.9159136482     2.1020498798    -2.1797382539
   75      O      -3.0624254583     1.4075533368    -2.0738008134
   76      Fe     -4.7504220186     1.3245015091    -1.6231915856
 ----------------------------------------------------------------
 Molecular Point Group                 C1    NOp =  1
 Largest Abelian Subgroup              C1    NOp =  1
 Nuclear Repulsion Energy =  3402.4676625024 hartrees
 There are      136 alpha and      132 beta electrons
 Applying Cartesian multipole field
    Component          Value
    ---------          -----
     (2,0,0)        1.00000E-12
     (0,2,0)        2.00000E-11
     (0,0,2)       -3.00000E-11
 Nucleus-field energy     =     0.0000000696 hartrees
 Requested basis set is VDZ
 There are 258 shells and 402 basis functions
 A cutoff of  1.0D-12 yielded  14740 shell pairs
 There are     36644 function pairs (     37060 Cartesian)
 Smallest overlap matrix eigenvalue = 9.02E-04
 Guess MOs from SCF MO coefficient file

 -----------------------------------------------------------------------
  General SCF calculation program by
  Eric Jon Sundstrom, Paul Horn, Yuezhi Mao, Dmitri Zuev, Alec White,
  David Stuck, Shaama M.S., Shane Yost, Joonho Lee, David Small,
  Daniel Levine, Susi Lehtola, Hugh Burton, Evgeny Epifanovsky
 -----------------------------------------------------------------------
 Exchange:  B88      Correlation:  LYP
 Using SG-1 standard quadrature grid
 using 12 threads for integral computing
 -------------------------------------------------------
 OpenMP Integral computing Module                
 Release: version 1.0, May 2013, Q-Chem Inc. Pittsburgh 
 -------------------------------------------------------
 -------------------------------------------------------
 OpenMP BLAS3 based DFT computing Module                
 Release: version 1.0, May 2013, Q-Chem Inc. Pittsburgh 
 -------------------------------------------------------
 A unrestricted SCF calculation will be
 performed using DIIS, GDM
 SCF converges when RMS gradient is below 1.0e-08
 ---------------------------------------
  Cycle       Energy         DIIS error
 ---------------------------------------
    1   -2617.9308909417      2.11e-04  
    2   -2617.9401510432      7.67e-05  Done DIIS. Switching to GDM
 ---------------------------------------
  Cycle       Energy        RMS Gradient
 ---------------------------------------
    1   -2617.9401510432      6.29e-02   Normal BFGS step
    2   -2617.9084051351      2.96e-01  Line search: overstep
    3   -2617.9407676620      2.00e-02   Normal BFGS step
    4   -2617.9306498240      1.44e-01  Line search: overstep
    5   -2617.9409262832      3.13e-03   Normal BFGS step
    6   -2617.9409634289      3.02e-03   Normal BFGS step
    7   -2617.9409634153      3.94e-03   Normal BFGS step
    8   -2617.9409982887      2.20e-03   Normal BFGS step
    9   -2617.9409829119      2.82e-03  Line search: overstep
   10   -2617.9410117618      7.18e-04   Normal BFGS step
   11   -2617.9410108162      1.21e-03  Line search: overstep
   12   -2617.9410159244      6.53e-04   Normal BFGS step
   13   -2617.9410156137      9.59e-04  Line search: overstep
   14   -2617.9410176733      4.48e-04   Normal BFGS step
   15   -2617.9410178928      5.69e-04   Normal BFGS step
   16   -2617.9410187964      3.38e-04   Normal BFGS step
   17   -2617.9410188021      3.60e-04   Normal BFGS step
   18   -2617.9410191055      3.02e-04   Normal BFGS step
   19   -2617.9410190667      2.50e-04   Normal BFGS step
   20   -2617.9410192598      1.42e-04   Normal BFGS step
   21   -2617.9410192731      9.78e-05   Normal BFGS step
   22   -2617.9410193607      6.55e-05   Normal BFGS step
   23   -2617.9410193399      1.02e-04  Line search: overstep
   24   -2617.9410193796      1.88e-05   Normal BFGS step
   25   -2617.9410193807      3.55e-05   Normal BFGS step
   26   -2617.9410193852      2.68e-05   Normal BFGS step
   27   -2617.9410193852      1.33e-05   Normal BFGS step
   28   -2617.9410193855      6.47e-05   Normal BFGS step
   29   -2617.9410193572      2.66e-04  Line search: overstep
   30   -2617.9410193862      2.18e-05   Normal BFGS step
   31   -2617.9410193864      9.12e-06   Normal BFGS step
   32   -2617.9410193868      1.32e-05   Normal BFGS step
   33   -2617.9410193870      5.04e-06   Normal BFGS step
   34   -2617.9410193871      4.68e-06   Normal BFGS step
   35   -2617.9410193872      3.82e-06   Normal BFGS step
   36   -2617.9410193872      1.04e-05   Normal BFGS step
   37   -2617.9410193872      6.22e-06   Normal BFGS step
   38   -2617.9410193873      3.30e-06   Normal BFGS step
   39   -2617.9410193873      5.80e-06   Normal BFGS step
   40   -2617.9410193873      4.60e-06   Normal BFGS step
   41   -2617.9410193873      2.07e-06   Normal BFGS step
   42   -2617.9410193873      1.53e-06   Normal BFGS step
