
Running Job 1 of 1 car_1_1_opt_631g_gga.in
qchem car_1_1_opt_631g_gga.in_15623.0 /scr/c295_lal/137027/qchem15623/ 1
/usr/software/qchem_511/exe/qcprog.exe_s car_1_1_opt_631g_gga.in_15623.0 /scr/c295_lal/137027/qchem15623/
Check license passed

                  Welcome to Q-Chem
     A Quantum Leap Into The Future Of Chemistry


 Q-Chem 5.1, Q-Chem, Inc., Pleasanton, CA (2018)

 Yihan Shao,  Zhengting Gan,  E. Epifanovsky,  A. T. B. Gilbert,  M. Wormit,  
 J. Kussmann,  A. W. Lange,  A. Behn,  Jia Deng,  Xintian Feng,  D. Ghosh,  
 M. Goldey,  P. R. Horn,  L. D. Jacobson,  I. Kaliman,  T. Kus,  A. Landau,  
 Jie Liu,  E. I. Proynov,  R. M. Richard,  R. P. Steele,  E. J. Sundstrom,  
 H. L. Woodcock III,  P. M. Zimmerman,  D. Zuev,  B. Albrecht,  E. Alguire,  
 S. A. Baeppler,  D. Barton,  Z. Benda,  Y. A. Bernard,  E. J. Berquist,  
 K. B. Bravaya,  H. Burton,  D. Casanova,  Chun-Min Chang,  Yunqing Chen,  
 A. Chien,  K. D. Closser,  M. P. Coons,  S. Coriani,  S. Dasgupta,  
 A. L. Dempwolff,  M. Diedenhofen,  Hainam Do,  R. G. Edgar,  Po-Tung Fang,  
 S. Faraji,  S. Fatehi,  Qingguo Feng,  K. D. Fenk,  J. Fosso-Tande,  
 Qinghui Ge,  A. Ghysels,  G. Gidofalvi,  J. Gomes,  J. Gonthier,  A. Gunina,  
 D. Hait,  M. W. D. Hanson-Heine,  P. H. P. Harbach,  A. W. Hauser,  
 J. E. Herr,  E. G. Hohenstein,  Z. C. Holden,  Kerwin Hui,  B. C. Huynh,  
 T.-C. Jagau,  Hyunjun Ji,  B. Kaduk,  K. Khistyaev,  Jaehoon Kim,  
 P. Klunzinger,  K. Koh,  D. Kosenkov,  L. Koulias,  T. Kowalczyk,  
 C. M. Krauter,  A. Kunitsa,  Ka Un Lao,  A. Laurent,  K. V. Lawler,  
 Joonho Lee,  D. Lefrancois,  S. Lehtola,  D. S. Levine,  Yi-Pei Li,  
 You-Sheng Lin,  Fenglai Liu,  E. Livshits,  A. Luenser,  P. Manohar,  
 E. Mansoor,  S. F. Manzer,  Shan-Ping Mao,  Yuezhi Mao,  N. Mardirossian,  
 A. V. Marenich,  T. Markovich,  L. A. Martinez-Martinez,  S. A. Maurer,  
 N. J. Mayhall,  S. C. McKenzie,  J.-M. Mewes,  A. F. Morrison,  
 J. W. Mullinax,  K. Nanda,  T. S. Nguyen-Beck,  R. Olivares-Amaya,  
 J. A. Parkhill,  T. M. Perrine,  F. Plasser,  P. Pokhilko,  S. Prager,  
 A. Prociuk,  E. Ramos,  D. R. Rehn,  F. Rob,  M. Schneider,  N. Sergueev,  
 S. M. Sharada,  S. Sharma,  D. W. Small,  T. Stauch,  T. Stein,  
 Yu-Chuan Su,  A. J. W. Thom,  A. Tkatchenko,  T. Tsuchimochi,  N. M. Tubman,  
 L. Vogt,  M. L. Vidal,  O. Vydrov,  M. A. Watson,  J. Wenzel,  
 M. de Wergifosse,  T. A. Wesolowski,  A. White,  J. Witte,  A. Yamada,  
 Jun Yang,  K. Yao,  S. Yeganeh,  S. R. Yost,  Zhi-Qiang You,  A. Zech,  
 Igor Ying Zhang,  Xing Zhang,  Yan Zhao,  Ying Zhu,  B. R. Brooks,  
 G. K. L. Chan,  C. J. Cramer,  M. S. Gordon,  W. J. Hehre,  A. Klamt,  
 M. W. Schmidt,  C. D. Sherrill,  D. G. Truhlar,  A. Aspuru-Guzik,  R. Baer,  
 A. T. Bell,  N. A. Besley,  Jeng-Da Chai,  A. E. DePrince, III,  
 R. A. DiStasio Jr.,  A. Dreuw,  B. D. Dunietz,  T. R. Furlani,  
 Chao-Ping Hsu,  Yousung Jung,  Jing Kong,  D. S. Lambrecht,  WanZhen Liang,  
 C. Ochsenfeld,  V. A. Rassolov,  L. V. Slipchenko,  J. E. Subotnik,  
 T. Van Voorhis,  J. M. Herbert,  A. I. Krylov,  P. M. W. Gill,  M. Head-Gordon

 Contributors to earlier versions of Q-Chem not listed above: 
 R. D. Adamson,  B. Austin,  J. Baker,  G. J. O. Beran,  K. Brandhorst,  
 S. T. Brown,  E. F. C. Byrd,  A. K. Chakraborty,  C.-L. Cheng,  
 Siu Hung Chien,  D. M. Chipman,  D. L. Crittenden,  H. Dachsel,  
 R. J. Doerksen,  A. D. Dutoi,  L. Fusti-Molnar,  W. A. Goddard III,  
 A. Golubeva-Zadorozhnaya,  S. R. Gwaltney,  G. Hawkins,  A. Heyden,  
 S. Hirata,  G. Kedziora,  F. J. Keil,  C. Kelley,  Jihan Kim,  R. A. King,  
 R. Z. Khaliullin,  P. P. Korambath,  W. Kurlancheek,  A. M. Lee,  M. S. Lee,  
 S. V. Levchenko,  Ching Yeh Lin,  D. Liotard,  R. C. Lochan,  I. Lotan,  
 P. E. Maslen,  N. Nair,  D. P. O'Neill,  D. Neuhauser,  E. Neuscamman,  
 C. M. Oana,  R. Olson,  B. Peters,  R. Peverati,  P. A. Pieniazek,  
 Y. M. Rhee,  J. Ritchie,  M. A. Rohrdanz,  E. Rosta,  N. J. Russ,  
 H. F. Schaefer III,  N. E. Schultz,  N. Shenvi,  A. C. Simmonett,  A. Sodt,  
 D. Stuck,  K. S. Thanthiriwatte,  V. Vanovschi,  Tao Wang,  A. Warshel,  
 C. F. Williams,  Q. Wu,  X. Xu,  W. Zhang

 Please cite Q-Chem as follows:
 Y. Shao et al., Mol. Phys. 113, 184-215 (2015)
 DOI: 10.1080/00268976.2014.952696

 Q-Chem 5.1.1 for Intel X86 EM64T Linux

 Parts of Q-Chem use Armadillo 8.300.2 (Tropical Shenanigans).
 http://arma.sourceforge.net/

 Q-Chem begins on Wed Oct 31 00:19:36 2018  

Host: cub-0-24.local
0

     Scratch files written to /scr/c295_lal/137027/qchem15623//
 Aug318 |scratch|qcdevops|jenkins|workspace|build_RNUM -1
Processing $rem in /usr/software/qchem_511/config/preferences.
 MEM_TOTAL  2000 
Input Ideriv = 2
Curr. Ideriv = -1
Max.  Ideriv = 2

Checking the input file for inconsistencies... 	...done.

--------------------------------------------------------------
User input:
--------------------------------------------------------------
$molecule
0 1
C         -0.44227        1.98209       -0.59834
C         -0.74587        1.21450        0.45084
C          0.29197        0.42699        1.14719
C         -0.01711       -0.34211        2.19968
C          1.02120       -1.13089        2.89805
C          0.70181       -1.92264        3.93730
H         -1.21989        2.55271       -1.09572
H          0.57599        2.04965       -0.96995
H         -1.77691        1.17409        0.79192
H          1.32031        0.47599        0.79621
H         -1.04629       -0.38864        2.54847
H          2.03355       -1.08428        2.51649
C          1.65276       -2.81250        4.69851
H         -0.35235       -1.99055        4.18415
C          2.97474       -2.49794        4.95486
C          3.89352       -3.43617        5.72288
C          3.15664       -4.48178        6.55212
H          4.53080       -2.87026        6.43718
H          4.56891       -3.91841        4.98301
C          2.12938       -5.15474        5.67040
H          2.66196       -4.01114        7.42608
H          3.89211       -5.22010        6.93851
C          1.04005       -4.14673        5.20452
H          1.65834       -6.01322        6.19831
H          2.67863       -5.56901        4.79360
C          3.65166       -1.18932        4.59459
H          2.99033       -0.38780        4.23582
H          4.47006       -1.37244        3.86725
H          4.09349       -0.75142        5.51448
C          0.05808       -3.84392        6.36256
H          0.56143       -3.31711        7.19818
H         -0.38229       -4.78464        6.75779
H         -0.78315       -3.20252        6.02998
C          0.25937       -4.85971        4.07238
H          0.92838       -5.07328        3.21072
H         -0.59022       -4.24949        3.70250
H         -0.16436       -5.82234        4.43321



$end

$rem
BASIS = 6-31G
METHOD  = BLYP
JOBTYPE = OPT
$end
--------------------------------------------------------------
 ----------------------------------------------------------------
             Standard Nuclear Orientation (Angstroms)
    I     Atom           X                Y                Z
 ----------------------------------------------------------------
    1      C       6.3906579118    -0.1583131447    -0.3098268624
    2      C       5.2672277676     0.4166981219     0.1253889403
    3      C       3.9444292303    -0.1717667187    -0.1680396702
    4      C       2.8194916769     0.4086458654     0.2706141679
    5      C       1.4943376837    -0.1797422454    -0.0222143259
    6      C       0.3663059574     0.4208547266     0.3970067362
    7      H       7.3523912860     0.2904518911    -0.0831866790
    8      H       6.3644452608    -1.0748626197    -0.8918592758
    9      H       5.3361732125     1.3334505655     0.7048917434
   10      H       3.8887421711    -1.0896345314    -0.7489774859
   11      H       2.8785709155     1.3262193486     0.8516473200
   12      H       1.4625815721    -1.0809407003    -0.6217524335
   13      C      -1.0413693839    -0.0463833392     0.1218047933
   14      H       0.4872277501     1.3750801481     0.8986358434
   15      C      -1.4182713222    -1.3746585043     0.0448343364
   16      C      -2.8528766619    -1.7913977626    -0.2424335725
   17      C      -3.8791795932    -0.6941851393     0.0159423875
   18      H      -3.1522492824    -2.6497015598     0.3981091992
   19      H      -2.8936028928    -2.1337863429    -1.2994227497
   20      C      -3.4166604233     0.5667224262    -0.6781444631
   21      H      -3.9930568383    -0.5127194634     1.1041145132
   22      H      -4.8659003672    -1.0232079404    -0.3757920710
   23      C      -2.0840040669     1.0886262548    -0.0687089760
   24      H      -4.1989662744     1.3558394252    -0.6247827040
   25      H      -3.2801951709     0.3110373418    -1.7542837700
   26      C      -0.5107684439    -2.5614219817     0.3066213457
   27      H       0.4765452467    -2.3285021118     0.7302575137
   28      H      -0.4039751529    -3.1690273323    -0.6162794621
   29      H      -0.9724069636    -3.1968926301     1.0916275260
   30      C      -2.3475971002     1.7663258098     1.2981332404
   31      H      -2.7123855272     1.0391945350     2.0513664684
   32      H      -3.1058697959     2.5722418237     1.1951356396
   33      H      -1.4287537542     2.2312992858     1.7094699654
   34      C      -1.5581611255     2.1609078190    -1.0552403594
   35      H      -1.3347263483     1.7058673266    -2.0445125824
   36      H      -0.6326276416     2.6493696183    -0.6867628543
   37      H      -2.3133340446     2.9637507956    -1.2020699751
 ----------------------------------------------------------------
 Molecular Point Group                 C1    NOp =  1
 Largest Abelian Subgroup              C1    NOp =  1
 Nuclear Repulsion Energy =   949.3001160117 hartrees
 There are       56 alpha and       56 beta electrons
 Requested basis set is 6-31G
 There are 89 shells and 179 basis functions

 Total QAlloc Memory Limit   2000 MB
 Mega-Array Size       188 MB
 MEM_STATIC part       192 MB
 A cutoff of  1.0D-11 yielded   2825 shell pairs
 There are     12587 function pairs
 
 -------------------------------------------------------
 OpenMP Integral Computing Module                       
 Release: version 1.0, May 2013, Q-Chem Inc. Pittsburgh 
 -------------------------------------------------------
 Integral Job Info:
 Integral job number is                      11
 Integral operator is                         1
 short-range coefficients                     0
 long-range coefficients              100000000
 Omega coefficients                           0
 if combine SR and LR in K                    0
 Integral screening is                        0
 Integral computing path is                   2
 max size of driver memory is            800000
 size of driver memory is                 45569
 size of scratch memory is              2040132
 max col of scratch BK array                289
 max len of scratch array in speh3           22
 max len of scratch index in speh4            8
 max int batch size is                      520
 min int batch size is                       52
 fixed nKL is                                52
 max L of basis functions is                  1
 order of int derivative is                   0
 number of shells is                         89
 number of basis is                         179
 number of cartesian basis is               179
 number of contracted shell pairs          2825
 number of primitive shell pairs          10677
 maxK2 (contraction) of shell pair           36
 max number of K2 of shell pair               1
 max number of CS2 of shell pair            519
 max number of PS2 of shell pair           2016
 mem total for path MDJ                  547598
 -------------------------------------------------------
 Smallest overlap matrix eigenvalue = 2.05E-03

 Scale SEOQF with 1.000000e-02/1.000000e-01/1.000000e-01

 Standard Electronic Orientation quadrupole field applied
 Nucleus-field energy     =     0.0000000139 hartrees
 Guess from superposition of atomic densities
 Warning:  Energy on first SCF cycle will be non-variational
 SAD guess density has 112.000000 electrons

 -----------------------------------------------------------------------
  General SCF calculation program by
  Eric Jon Sundstrom, Paul Horn, Yuezhi Mao, Dmitri Zuev, Alec White,
  David Stuck, Shaama M.S., Shane Yost, Joonho Lee, David Small,
  Daniel Levine, Susi Lehtola, Hugh Burton, Evgeny Epifanovsky
 -----------------------------------------------------------------------
 Exchange:  B88      Correlation:  LYP
 Using SG-1 standard quadrature grid
 using 2 threads for integral computing
 -------------------------------------------------------
 OpenMP Integral computing Module                
 Release: version 1.0, May 2013, Q-Chem Inc. Pittsburgh 
 -------------------------------------------------------
 -------------------------------------------------------
 OpenMP BLAS3 based DFT computing Module                
 Release: version 1.0, May 2013, Q-Chem Inc. Pittsburgh 
 -------------------------------------------------------
 A restricted SCF calculation will be
 performed using DIIS
 SCF converges when DIIS error is below 1.0e-08
 ---------------------------------------
  Cycle       Energy         DIIS error
 ---------------------------------------
    1    -586.3959083484      6.81e-02  
    2    -583.8619870181      9.83e-03  
    3    -583.5481930021      1.27e-02  
    4    -584.3065737398      1.50e-03  
    5    -584.3137555600      8.97e-04  
    6    -584.3166600736      4.04e-04  
    7    -584.3173754613      7.68e-05  
    8    -584.3173902187      5.25e-05  
    9    -584.3174033061      1.52e-05  
   10    -584.3174043783      4.41e-06  
   11    -584.3174044574      2.06e-06  
   12    -584.3174044763      3.96e-07  
   13    -584.3174044767      2.88e-07  
   14    -584.3174044771      4.93e-08  
   15    -584.3174044771      1.55e-08  
   16    -584.3174044771      1.63e-09  Convergence criterion met
 ---------------------------------------
 SCF time:   CPU 80.31s  wall 40.00s 
 SCF   energy in the final basis set =     -584.3174044771
 Total energy in the final basis set =     -584.3174044771
 
 --------------------------------------------------------------
 
                    Orbital Energies (a.u.)
 --------------------------------------------------------------
 
 Alpha MOs
 -- Occupied --
 -9.929  -9.922  -9.918  -9.917  -9.915  -9.914  -9.914  -9.913
 -9.913  -9.907  -9.907  -9.906  -9.904  -9.904  -9.900  -0.759
 -0.729  -0.700  -0.699  -0.671  -0.639  -0.603  -0.601  -0.592
 -0.541  -0.512  -0.499  -0.492  -0.480  -0.439  -0.416  -0.410
 -0.395  -0.385  -0.381  -0.367  -0.367  -0.351  -0.343  -0.341
 -0.337  -0.332  -0.324  -0.320  -0.311  -0.299  -0.296  -0.291
 -0.287  -0.284  -0.270  -0.254  -0.246  -0.240  -0.199  -0.158
 -- Virtual --
 -0.056  -0.001   0.042   0.060   0.069   0.070   0.088   0.096
  0.100   0.102   0.107   0.115   0.127   0.133   0.136   0.142
  0.147   0.152   0.159   0.165   0.166   0.172   0.178   0.184
  0.185   0.199   0.201   0.206   0.220   0.225   0.244   0.250
  0.258   0.266   0.300   0.322   0.343   0.355   0.370   0.386
  0.441   0.484   0.487   0.498   0.501   0.508   0.515   0.523
  0.534   0.539   0.546   0.558   0.564   0.569   0.577   0.586
  0.609   0.612   0.619   0.626   0.632   0.639   0.648   0.654
  0.664   0.683   0.691   0.707   0.712   0.724   0.731   0.758
  0.775   0.777   0.787   0.791   0.804   0.810   0.825   0.842
  0.854   0.861   0.865   0.869   0.873   0.887   0.901   0.907
  0.916   0.917   0.924   0.930   0.934   0.942   0.946   0.952
  0.962   0.976   0.980   0.988   1.035   1.042   1.077   1.086
  1.118   1.144   1.151   1.175   1.207   1.216   1.239   1.283
  1.290   1.310   1.327   1.373   1.444   1.451   1.526   1.571
  1.648   1.741   1.836
 --------------------------------------------------------------
 
          Ground-State Mulliken Net Atomic Charges

     Atom                 Charge (a.u.)
  ----------------------------------------
      1 C                    -0.280627
      2 C                    -0.033743
      3 C                    -0.094528
      4 C                    -0.089690
      5 C                    -0.074989
      6 C                    -0.153364
      7 H                     0.099678
      8 H                     0.104610
      9 H                     0.093641
     10 H                     0.092055
     11 H                     0.091206
     12 H                     0.104358
     13 C                     0.099376
     14 H                     0.095775
     15 C                     0.086282
     16 C                    -0.275012
     17 C                    -0.215367
     18 H                     0.110676
     19 H                     0.120726
     20 C                    -0.203796
     21 H                     0.114340
     22 H                     0.098541
     23 C                    -0.001565
     24 H                     0.096157
     25 H                     0.103742
     26 C                    -0.439700
     27 H                     0.138283
     28 H                     0.126134
     29 H                     0.121977
     30 C                    -0.365463
     31 H                     0.120738
     32 H                     0.112219
     33 H                     0.117119
     34 C                    -0.354352
     35 H                     0.116254
     36 H                     0.109642
     37 H                     0.108666
  ----------------------------------------
  Sum of atomic charges =    -0.000000

 -----------------------------------------------------------------
                    Cartesian Multipole Moments
 -----------------------------------------------------------------
    Charge (ESU x 10^10)
                -0.0000
    Dipole Moment (Debye)
         X      -0.7844      Y      -0.1938      Z       0.0266
       Tot       0.8084
    Quadrupole Moments (Debye-Ang)
        XX     -93.1632     XY       1.1218     YY     -91.0977
        XZ       0.5295     YZ       3.3404     ZZ     -95.7338
    Octopole Moments (Debye-Ang^2)
       XXX      -2.7115    XXY       3.7232    XYY       2.4495
       YYY      -2.3348    XXZ       0.3162    XYZ      11.1355
       YYZ       1.5005    XZZ      -6.4707    YZZ      -2.4766
       ZZZ      -1.0791
    Hexadecapole Moments (Debye-Ang^3)
      XXXX   -5677.2061   XXXY      39.8083   XXYY   -1127.5464
      XYYY       3.7051   YYYY   -1157.9748   XXXZ      10.6395
      XXYZ      54.7204   XYYZ       1.3246   YYYZ       6.8425
      XXZZ   -1052.1209   XYZZ       3.4899   YYZZ    -248.1968
      XZZZ       2.6109   YZZZ       3.6829   ZZZZ    -346.2221
 -----------------------------------------------------------------
 Calculating analytic gradient of the SCF energy
 Gradient of SCF Energy
            1           2           3           4           5           6
    1  -0.0205628   0.0233585  -0.0330918   0.0370921  -0.0298762   0.0374585
    2   0.0024873   0.0129470  -0.0135698   0.0130619  -0.0150626   0.0078163
    3   0.0028746   0.0069794  -0.0065141   0.0052964  -0.0057271   0.0055018
            7           8           9          10          11          12
    1  -0.0072604  -0.0031828   0.0056605  -0.0037799   0.0034996  -0.0028874
    2   0.0018089   0.0042131  -0.0052826   0.0043960  -0.0046562   0.0046192
    3   0.0015658   0.0028280  -0.0036795   0.0028717  -0.0032100   0.0036500
           13          14          15          16          17          18
    1  -0.0093190   0.0034420  -0.0078702   0.0013045   0.0143696  -0.0073824
    2   0.0048306  -0.0058052  -0.0104588   0.0098261   0.0045030   0.0030305
    3   0.0001192  -0.0057043  -0.0089740  -0.0059915   0.0003660   0.0048385
           19          20          21          22          23          24
    1   0.0043609   0.0055023   0.0009201  -0.0013366  -0.0002281  -0.0052753
    2   0.0017507  -0.0059937   0.0029722  -0.0018253  -0.0056649   0.0001108
    3  -0.0010501   0.0056605   0.0020848  -0.0035217   0.0055945   0.0008225
           25          26          27          28          29          30
    1  -0.0015740   0.0000194  -0.0003875  -0.0031891   0.0039470   0.0040808
    2  -0.0055304   0.0049328  -0.0037201   0.0015958   0.0035870  -0.0053733
    3  -0.0027096  -0.0092520   0.0068177  -0.0040989   0.0059236  -0.0117010
           31          32          33          34          35          36
    1  -0.0007263  -0.0024284   0.0025710  -0.0087257   0.0007140   0.0027478
    2  -0.0031023   0.0024285   0.0016670  -0.0094377  -0.0029230   0.0018484
    3   0.0022240  -0.0003788   0.0012811   0.0074200  -0.0039110   0.0022188
           37
    1  -0.0019646
    2   0.0039726
    3  -0.0005155
 Max gradient component =       3.746E-02
 RMS gradient           =       8.993E-03
 Gradient time:  CPU 11.43 s  wall 5.73 s
 Geometry Optimization Parameters
   NAtoms,    NIC,     NZ,  NCons,   NDum,   NFix, NCnnct, MaxDiis
       37     268       0       0       0       0       0       0


** GEOMETRY OPTIMIZATION IN DELOCALIZED INTERNAL COORDINATES **
   Searching for a Minimum

   Optimization Cycle:   1

                       Coordinates (Angstroms)
     ATOM                X               Y               Z
      1  C         6.3906579118   -0.1583131447   -0.3098268624
      2  C         5.2672277676    0.4166981219    0.1253889403
      3  C         3.9444292303   -0.1717667187   -0.1680396702
      4  C         2.8194916769    0.4086458654    0.2706141679
      5  C         1.4943376837   -0.1797422454   -0.0222143259
      6  C         0.3663059574    0.4208547266    0.3970067362
      7  H         7.3523912860    0.2904518911   -0.0831866790
      8  H         6.3644452608   -1.0748626197   -0.8918592758
      9  H         5.3361732125    1.3334505655    0.7048917434
     10  H         3.8887421711   -1.0896345314   -0.7489774859
     11  H         2.8785709155    1.3262193486    0.8516473200
     12  H         1.4625815721   -1.0809407003   -0.6217524335
     13  C        -1.0413693839   -0.0463833392    0.1218047933
     14  H         0.4872277501    1.3750801481    0.8986358434
     15  C        -1.4182713222   -1.3746585043    0.0448343364
     16  C        -2.8528766619   -1.7913977626   -0.2424335725
     17  C        -3.8791795932   -0.6941851393    0.0159423875
     18  H        -3.1522492824   -2.6497015598    0.3981091992
     19  H        -2.8936028928   -2.1337863429   -1.2994227497
     20  C        -3.4166604233    0.5667224262   -0.6781444631
     21  H        -3.9930568383   -0.5127194634    1.1041145132
     22  H        -4.8659003672   -1.0232079404   -0.3757920710
     23  C        -2.0840040669    1.0886262548   -0.0687089760
     24  H        -4.1989662744    1.3558394252   -0.6247827040
     25  H        -3.2801951709    0.3110373418   -1.7542837700
     26  C        -0.5107684439   -2.5614219817    0.3066213457
     27  H         0.4765452467   -2.3285021118    0.7302575137
     28  H        -0.4039751529   -3.1690273323   -0.6162794621
     29  H        -0.9724069636   -3.1968926301    1.0916275260
     30  C        -2.3475971002    1.7663258098    1.2981332404
     31  H        -2.7123855272    1.0391945350    2.0513664684
     32  H        -3.1058697959    2.5722418237    1.1951356396
     33  H        -1.4287537542    2.2312992858    1.7094699654
     34  C        -1.5581611255    2.1609078190   -1.0552403594
     35  H        -1.3347263483    1.7058673266   -2.0445125824
     36  H        -0.6326276416    2.6493696183   -0.6867628543
     37  H        -2.3133340446    2.9637507956   -1.2020699751
   Point Group: c1    Number of degrees of freedom:   105


   Energy is   -584.317404477


 Attempting to Generate Delocalized Internal Coordinates

105 Hessian modes will be used to form the next step
  Hessian Eigenvalues:
     0.002691    0.002799    0.004031    0.006964    0.008053    0.008457
     0.010045    0.010689    0.011932    0.012192    0.014099    0.018958
     0.021162    0.021187    0.021344    0.021509    0.029688    0.030384
     0.031009    0.031009    0.031017    0.032053    0.045115    0.046822
     0.050023    0.052531    0.053551    0.053686    0.053922    0.054589
     0.054982    0.060454    0.065780    0.068078    0.075096    0.077314
     0.078029    0.081890    0.095330    0.097773    0.120467    0.133162
     0.159006    0.159598    0.159892    0.160000    0.160000    0.160000
     0.160000    0.160000    0.160000    0.160000    0.160000    0.160000
     0.160000    0.160000    0.160000    0.160000    0.160000    0.185412
     0.220000    0.220000    0.220000    0.220027    0.220142    0.227290
     0.249466    0.249994    0.264221    0.270705    0.277324    0.278022
     0.290602    0.296781    0.301518    0.306827    0.315008    0.321299
     0.323415    0.323863    0.323959    0.324095    0.324317    0.324466
     0.324581    0.325492    0.325888    0.326534    0.326996    0.327162
     0.327412    0.337573    0.346633    0.348895    0.350809    0.350830
     0.351917    0.352727    0.353718    0.354201    0.356495    0.469580
     0.561076    0.572736    0.583470

 Minimum Search - Taking Simple RFO Step
 Searching for Lamda that Minimizes Along All modes
 Value Taken    Lamda =  -0.02292896
 Calculated Step too Large.  Step scaled by  0.798055
 Step Taken.  Stepsize is  0.300000

                             Maximum     Tolerance    Cnvgd?
         Gradient           0.035174      0.000300      NO
         Displacement       0.083677      0.001200      NO
         Energy change     *********      0.000001      NO


 New Cartesian Coordinates Obtained by Inverse Iteration

 Displacement from previous Coordinates is:  1.121264
 ----------------------------------------------------------------
             Standard Nuclear Orientation (Angstroms)
    I     Atom           X                Y                Z
 ----------------------------------------------------------------
    1      C       6.4761742394    -0.0530777744    -0.3690735088
    2      C       5.3045182378     0.4524739195     0.0935794209
    3      C       3.9902048931    -0.1359024738    -0.1995340237
    4      C       2.8130893971     0.3784178153     0.2668129860
    5      C       1.4977190056    -0.2013622171    -0.0327199998
    6      C       0.3293352076     0.3497801082     0.4141800896
    7      H       7.4307807141     0.4169358037    -0.1270548839
    8      H       6.5017358922    -0.9452593315    -0.9976539072
    9      H       5.3203461953     1.3484079637     0.7204245857
   10      H       3.9774995866    -1.0305586790    -0.8279889569
   11      H       2.8309715247     1.2738128769     0.8948355726
   12      H       1.4960748256    -1.0768901345    -0.6808253146
   13      C      -1.0683705492    -0.0974247157     0.1408363993
   14      H       0.4178061343     1.2916793965     0.9616735687
   15      C      -1.4724339707    -1.4170144937     0.0850155208
   16      C      -2.9155912489    -1.8166924091    -0.2332209405
   17      C      -3.9354475362    -0.6797889676    -0.0226735626
   18      H      -3.2105971594    -2.6819827172     0.3947077278
   19      H      -2.9520230049    -2.1717805205    -1.2857682574
   20      C      -3.4122471271     0.5958078497    -0.7008045876
   21      H      -4.0755578153    -0.5051764238     1.0605743157
   22      H      -4.9210528708    -0.9794493279    -0.4302175093
   23      C      -2.0706041394     1.0850880572    -0.0670515450
   24      H      -4.1557286595     1.4161053209    -0.6615988447
   25      H      -3.2452700429     0.3685353366    -1.7743148648
   26      C      -0.5977775465    -2.6253695805     0.3922922353
   27      H       0.3810844944    -2.3824488882     0.8253143404
   28      H      -0.4512979614    -3.2510053544    -0.5096347641
   29      H      -1.1050042565    -3.2611693099     1.1474867239
   30      C      -2.3489605993     1.7783828266     1.3051722903
   31      H      -2.7615357274     1.0728391390     2.0475103865
   32      H      -3.0693481834     2.6099912506     1.1817540827
   33      H      -1.4271964240     2.2063053601     1.7388678059
   34      C      -1.4694700551     2.1477504520    -1.0437105037
   35      H      -1.2378214453     1.6948136558    -2.0254530891
   36      H      -0.5396697753     2.6004664445    -0.6548685606
   37      H      -2.1921447824     2.9701988032    -1.2055590199
 ----------------------------------------------------------------
 Molecular Point Group                 C1    NOp =  1
 Largest Abelian Subgroup              C1    NOp =  1
 Nuclear Repulsion Energy =   942.7160304038 hartrees
 There are       56 alpha and       56 beta electrons
 Applying Cartesian multipole field
    Component          Value
    ---------          -----
     (2,0,0)        1.00000E-12
     (0,2,0)        2.00000E-11
     (0,0,2)       -3.00000E-11
 Nucleus-field energy     =     0.0000000141 hartrees
 Requested basis set is 6-31G
 There are 89 shells and 179 basis functions
 A cutoff of  1.0D-11 yielded   2804 shell pairs
 There are     12482 function pairs
 Smallest overlap matrix eigenvalue = 2.17E-03
 Guess MOs from SCF MO coefficient file

 -----------------------------------------------------------------------
  General SCF calculation program by
  Eric Jon Sundstrom, Paul Horn, Yuezhi Mao, Dmitri Zuev, Alec White,
  David Stuck, Shaama M.S., Shane Yost, Joonho Lee, David Small,
  Daniel Levine, Susi Lehtola, Hugh Burton, Evgeny Epifanovsky
 -----------------------------------------------------------------------
 Exchange:  B88      Correlation:  LYP
 Using SG-1 standard quadrature grid
 using 2 threads for integral computing
 -------------------------------------------------------
 OpenMP Integral computing Module                
 Release: version 1.0, May 2013, Q-Chem Inc. Pittsburgh 
 -------------------------------------------------------
 -------------------------------------------------------
 OpenMP BLAS3 based DFT computing Module                
 Release: version 1.0, May 2013, Q-Chem Inc. Pittsburgh 
 -------------------------------------------------------
 A restricted SCF calculation will be
 performed using DIIS
 SCF converges when DIIS error is below 1.0e-08
 ---------------------------------------
  Cycle       Energy         DIIS error
 ---------------------------------------
    1    -584.3190296907      1.02e-03  
    2    -584.3283324508      2.07e-04  
    3    -584.3280764479      3.16e-04  
    4    -584.3284641340      1.12e-04  
    5    -584.3285257363      2.30e-05  
    6    -584.3285274465      1.35e-05  
    7    -584.3285284052      3.61e-06  
    8    -584.3285284704      4.99e-07  
    9    -584.3285284711      3.55e-07  
   10    -584.3285284717      4.73e-08  
   11    -584.3285284717      2.13e-08  
   12    -584.3285284717      2.98e-09  Convergence criterion met
 ---------------------------------------
 SCF time:   CPU 61.00s  wall 31.00s 
 SCF   energy in the final basis set =     -584.3285284717
 Total energy in the final basis set =     -584.3285284717
 
 --------------------------------------------------------------
 
                    Orbital Energies (a.u.)
 --------------------------------------------------------------
 
 Alpha MOs
 -- Occupied --
 -9.933  -9.924  -9.921  -9.920  -9.920  -9.918  -9.918  -9.918
 -9.915  -9.910  -9.909  -9.908  -9.908  -9.904  -9.901  -0.755
 -0.724  -0.697  -0.695  -0.668  -0.635  -0.603  -0.600  -0.593
 -0.546  -0.516  -0.500  -0.489  -0.480  -0.436  -0.415  -0.406
 -0.395  -0.384  -0.380  -0.367  -0.365  -0.351  -0.343  -0.343
 -0.338  -0.332  -0.324  -0.318  -0.310  -0.299  -0.296  -0.292
 -0.288  -0.284  -0.270  -0.257  -0.247  -0.239  -0.199  -0.158
 -- Virtual --
 -0.063  -0.003   0.038   0.060   0.070   0.070   0.089   0.096
  0.101   0.102   0.106   0.115   0.128   0.132   0.137   0.141
  0.147   0.150   0.157   0.164   0.165   0.169   0.176   0.182
  0.184   0.193   0.197   0.206   0.215   0.220   0.241   0.245
  0.251   0.258   0.295   0.321   0.345   0.357   0.366   0.377
  0.435   0.480   0.485   0.494   0.499   0.502   0.510   0.521
  0.530   0.536   0.544   0.552   0.557   0.567   0.576   0.582
  0.604   0.610   0.612   0.615   0.627   0.634   0.636   0.648
  0.662   0.664   0.688   0.703   0.709   0.721   0.729   0.759
  0.773   0.774   0.784   0.794   0.799   0.809   0.821   0.839
  0.854   0.857   0.861   0.872   0.875   0.887   0.902   0.904
  0.911   0.915   0.923   0.931   0.934   0.939   0.947   0.955
  0.962   0.972   0.981   0.988   1.025   1.042   1.057   1.078
  1.100   1.121   1.142   1.178   1.194   1.200   1.230   1.271
  1.286   1.292   1.316   1.366   1.433   1.437   1.518   1.554
  1.639   1.726   1.809
 --------------------------------------------------------------
 
          Ground-State Mulliken Net Atomic Charges

     Atom                 Charge (a.u.)
  ----------------------------------------
      1 C                    -0.283792
      2 C                    -0.036047
      3 C                    -0.095451
      4 C                    -0.093609
      5 C                    -0.068751
      6 C                    -0.161565
      7 H                     0.104969
      8 H                     0.105967
      9 H                     0.092398
     10 H                     0.089994
     11 H                     0.090002
     12 H                     0.099270
     13 C                     0.093144
     14 H                     0.096461
     15 C                     0.091503
     16 C                    -0.275316
     17 C                    -0.215864
     18 H                     0.110312
     19 H                     0.121901
     20 C                    -0.206510
     21 H                     0.114897
     22 H                     0.099884
     23 C                     0.005829
     24 H                     0.097552
     25 H                     0.105569
     26 C                    -0.439611
     27 H                     0.138621
     28 H                     0.127811
     29 H                     0.122736
     30 C                    -0.368181
     31 H                     0.122031
     32 H                     0.113761
     33 H                     0.118026
     34 C                    -0.359104
     35 H                     0.118332
     36 H                     0.113364
     37 H                     0.109463
  ----------------------------------------
  Sum of atomic charges =    -0.000000

 -----------------------------------------------------------------
                    Cartesian Multipole Moments
 -----------------------------------------------------------------
    Charge (ESU x 10^10)
                -0.0000
    Dipole Moment (Debye)
         X      -0.9800      Y      -0.1868      Z      -0.0072
       Tot       0.9976
    Quadrupole Moments (Debye-Ang)
        XX     -93.0040     XY       0.9488     YY     -91.1025
        XZ       0.2433     YZ       3.3057     ZZ     -95.6194
    Octopole Moments (Debye-Ang^2)
       XXX      -1.1911    XXY       2.6660    XYY      -0.6511
       YYY      -2.4400    XXZ      -1.5529    XYZ      11.7023
       YYZ       1.4634    XZZ      -6.2306    YZZ      -1.6869
       ZZZ      -1.0040
    Hexadecapole Moments (Debye-Ang^3)
      XXXX   -5734.5598   XXXY       3.0790   XXYY   -1152.5865
      XYYY     -26.9226   YYYY   -1169.2498   XXXZ      12.4163
      XXYZ      58.9584   XYYZ       7.4674   YYYZ      12.1542
      XXZZ   -1067.7614   XYZZ      -9.3972   YYZZ    -252.5305
      XZZZ      19.5570   YZZZ      10.3888   ZZZZ    -353.7834
 -----------------------------------------------------------------
 Calculating analytic gradient of the SCF energy
 Gradient of SCF Energy
            1           2           3           4           5           6
    1  -0.0017379   0.0080082  -0.0114972   0.0129376  -0.0123851   0.0110707
    2  -0.0019860   0.0078249  -0.0085302   0.0084340  -0.0087485   0.0062934
    3  -0.0012424   0.0047617  -0.0047947   0.0046493  -0.0044029   0.0038015
            7           8           9          10          11          12
    1  -0.0014206  -0.0012107   0.0012993  -0.0001536   0.0001945   0.0010063
    2   0.0007852   0.0013508  -0.0020167   0.0021791  -0.0021342   0.0035305
    3   0.0006840   0.0010043  -0.0015205   0.0013564  -0.0015757   0.0013048
           13          14          15          16          17          18
    1  -0.0061749   0.0001354  -0.0017442   0.0011486   0.0038080  -0.0024739
    2   0.0031061  -0.0015221  -0.0046244   0.0010515   0.0013010   0.0005210
    3   0.0014631  -0.0030888  -0.0045107  -0.0023787   0.0009297   0.0018541
           19          20          21          22          23          24
    1   0.0017165   0.0010163   0.0007781  -0.0010155  -0.0002170  -0.0010716
    2   0.0006696   0.0001740   0.0005574  -0.0013610  -0.0029795   0.0008275
    3  -0.0001847   0.0017326   0.0003052  -0.0005796   0.0024444  -0.0006605
           25          26          27          28          29          30
    1  -0.0003129  -0.0000210  -0.0016959  -0.0017133   0.0015635   0.0012166
    2  -0.0016777   0.0004371  -0.0026476   0.0007098   0.0008626  -0.0019505
    3  -0.0008108  -0.0052525   0.0034208  -0.0008624   0.0033458  -0.0043802
           31          32          33          34          35          36
    1   0.0001125  -0.0008201   0.0005657  -0.0025869   0.0003597   0.0012711
    2  -0.0004732   0.0009047   0.0004728  -0.0031524  -0.0004563   0.0009276
    3   0.0011971   0.0005459   0.0005150   0.0018738  -0.0011971   0.0004348
           37
    1   0.0000436
    2   0.0013400
    3  -0.0001821
 Max gradient component =       1.294E-02
 RMS gradient           =       3.567E-03
 Gradient time:  CPU 11.34 s  wall 5.67 s
 Geometry Optimization Parameters
   NAtoms,    NIC,     NZ,  NCons,   NDum,   NFix, NCnnct, MaxDiis
       37     268       0       0       0       0       0       0

 Cartesian Hessian Update
 Hessian Updated using BFGS Update


** GEOMETRY OPTIMIZATION IN DELOCALIZED INTERNAL COORDINATES **
   Searching for a Minimum

   Optimization Cycle:   2

                       Coordinates (Angstroms)
     ATOM                X               Y               Z
      1  C         6.4761742394   -0.0530777744   -0.3690735088
      2  C         5.3045182378    0.4524739195    0.0935794209
      3  C         3.9902048931   -0.1359024738   -0.1995340237
      4  C         2.8130893971    0.3784178153    0.2668129860
      5  C         1.4977190056   -0.2013622171   -0.0327199998
      6  C         0.3293352076    0.3497801082    0.4141800896
      7  H         7.4307807141    0.4169358037   -0.1270548839
      8  H         6.5017358922   -0.9452593315   -0.9976539072
      9  H         5.3203461953    1.3484079637    0.7204245857
     10  H         3.9774995866   -1.0305586790   -0.8279889569
     11  H         2.8309715247    1.2738128769    0.8948355726
     12  H         1.4960748256   -1.0768901345   -0.6808253146
     13  C        -1.0683705492   -0.0974247157    0.1408363993
     14  H         0.4178061343    1.2916793965    0.9616735687
     15  C        -1.4724339707   -1.4170144937    0.0850155208
     16  C        -2.9155912489   -1.8166924091   -0.2332209405
     17  C        -3.9354475362   -0.6797889676   -0.0226735626
     18  H        -3.2105971594   -2.6819827172    0.3947077278
     19  H        -2.9520230049   -2.1717805205   -1.2857682574
     20  C        -3.4122471271    0.5958078497   -0.7008045876
     21  H        -4.0755578153   -0.5051764238    1.0605743157
     22  H        -4.9210528708   -0.9794493279   -0.4302175093
     23  C        -2.0706041394    1.0850880572   -0.0670515450
     24  H        -4.1557286595    1.4161053209   -0.6615988447
     25  H        -3.2452700429    0.3685353366   -1.7743148648
     26  C        -0.5977775465   -2.6253695805    0.3922922353
     27  H         0.3810844944   -2.3824488882    0.8253143404
     28  H        -0.4512979614   -3.2510053544   -0.5096347641
     29  H        -1.1050042565   -3.2611693099    1.1474867239
     30  C        -2.3489605993    1.7783828266    1.3051722903
     31  H        -2.7615357274    1.0728391390    2.0475103865
     32  H        -3.0693481834    2.6099912506    1.1817540827
     33  H        -1.4271964240    2.2063053601    1.7388678059
     34  C        -1.4694700551    2.1477504520   -1.0437105037
     35  H        -1.2378214453    1.6948136558   -2.0254530891
     36  H        -0.5396697753    2.6004664445   -0.6548685606
     37  H        -2.1921447824    2.9701988032   -1.2055590199
   Point Group: c1    Number of degrees of freedom:   105


   Energy is   -584.328528472

 Hessian Updated using BFGS Update

 92 Hessian modes will be used to form the next step
  Hessian Eigenvalues:
     0.002691    0.002799    0.004033    0.006989    0.008444    0.008598
     0.010054    0.010775    0.011934    0.012192    0.014359    0.018996
     0.021170    0.021204    0.021346    0.021509    0.029678    0.030385
     0.031009    0.031009    0.031053    0.032245    0.045692    0.046884
     0.049977    0.052643    0.053536    0.053686    0.053893    0.054592
     0.054973    0.060347    0.064560    0.067710    0.074940    0.077022
     0.078214    0.082416    0.095313    0.097644    0.120005    0.133426
     0.152445    0.159120    0.159642    0.159934    0.163508    0.185461
     0.207732    0.220001    0.220027    0.223088    0.227266    0.249390
     0.262346    0.264367    0.270594    0.277649    0.281308    0.290028
     0.296982    0.298840    0.306817    0.314474    0.321230    0.323016
     0.323644    0.324003    0.324109    0.324159    0.324477    0.324564
     0.325572    0.326082    0.326336    0.327071    0.327178    0.327362
     0.337743    0.343423    0.348083    0.350816    0.350997    0.352081
     0.352893    0.353957    0.355905    0.356584    0.469290    0.563831
     0.577472    0.609655

 Minimum Search - Taking Simple RFO Step
 Searching for Lamda that Minimizes Along All modes
 Value Taken    Lamda =  -0.00418047
 Step Taken.  Stepsize is  0.251878

                             Maximum     Tolerance    Cnvgd?
         Gradient           0.013193      0.000300      NO
         Displacement       0.072342      0.001200      NO
         Energy change     -0.011124      0.000001      NO


 New Cartesian Coordinates Obtained by Inverse Iteration

 Displacement from previous Coordinates is:  1.228178
 ----------------------------------------------------------------
             Standard Nuclear Orientation (Angstroms)
    I     Atom           X                Y                Z
 ----------------------------------------------------------------
    1      C       6.4849943749    -0.1832389214    -0.3172889693
    2      C       5.3040674523     0.3591977376     0.0971782800
    3      C       3.9880750363    -0.1937768557    -0.1815138341
    4      C       2.8013198579     0.3597100767     0.2406525214
    5      C       1.4862556561    -0.1808152801    -0.0463846381
    6      C       0.3116513749     0.3986496256     0.3706098141
    7      H       7.4479479364     0.2765407670    -0.0800392884
    8      H       6.5177915429    -1.1056593776    -0.9071867945
    9      H       5.3166493047     1.2861216366     0.6872813726
   10      H       3.9664614208    -1.1192273050    -0.7734449134
   11      H       2.8284525373     1.2834444768     0.8361782430
   12      H       1.4644382562    -1.0914133162    -0.6570953107
   13      C      -1.0708437804    -0.0474369272     0.1139448016
   14      H       0.3992010771     1.3401792957     0.9309025231
   15      C      -1.4321303449    -1.3714522895     0.0819205197
   16      C      -2.8670362358    -1.8326325303    -0.2152444954
   17      C      -3.9297731348    -0.7250678596    -0.0062670148
   18      H      -3.0977795244    -2.7170874658     0.4077135202
   19      H      -2.9150244290    -2.1937421513    -1.2654418070
   20      C      -3.4474147256     0.5805621999    -0.6814959744
   21      H      -4.0767716683    -0.5623111580     1.0770851126
   22      H      -4.9065466417    -1.0445805872    -0.4108525518
   23      C      -2.1089001480     1.1193670852    -0.0703709516
   24      H      -4.2126433364     1.3745849992    -0.6158283147
   25      H      -3.2862991463     0.3863587263    -1.7596581305
   26      C      -0.4714372701    -2.5241408059     0.3510181724
   27      H       0.5051434982    -2.1879440994     0.7263905486
   28      H      -0.2927924795    -3.1287460357    -0.5589629093
   29      H      -0.9116814450    -3.2146152256     1.0968629924
   30      C      -2.3999453545     1.7962974018     1.3155363384
   31      H      -2.8069099441     1.0770972625     2.0439641324
   32      H      -3.1314200208     2.6144849536     1.1920713290
   33      H      -1.4873881327     2.2334260511     1.7542178353
   34      C      -1.5562581780     2.2124761802    -1.0508968708
   35      H      -1.3162356687     1.7736169049    -2.0333937613
   36      H      -0.6461038339     2.7005726728    -0.6688430949
   37      H      -2.3189244160     2.9966391990    -1.2020070234
 ----------------------------------------------------------------
 Molecular Point Group                 C1    NOp =  1
 Largest Abelian Subgroup              C1    NOp =  1
 Nuclear Repulsion Energy =   942.6389227897 hartrees
 There are       56 alpha and       56 beta electrons
 Applying Cartesian multipole field
    Component          Value
    ---------          -----
     (2,0,0)        1.00000E-12
     (0,2,0)        2.00000E-11
     (0,0,2)       -3.00000E-11
 Nucleus-field energy     =     0.0000000142 hartrees
 Requested basis set is 6-31G
 There are 89 shells and 179 basis functions
 A cutoff of  1.0D-11 yielded   2804 shell pairs
 There are     12461 function pairs
 Smallest overlap matrix eigenvalue = 2.12E-03
 Guess MOs from SCF MO coefficient file

 -----------------------------------------------------------------------
  General SCF calculation program by
  Eric Jon Sundstrom, Paul Horn, Yuezhi Mao, Dmitri Zuev, Alec White,
  David Stuck, Shaama M.S., Shane Yost, Joonho Lee, David Small,
  Daniel Levine, Susi Lehtola, Hugh Burton, Evgeny Epifanovsky
 -----------------------------------------------------------------------
 Exchange:  B88      Correlation:  LYP
 Using SG-1 standard quadrature grid
 using 2 threads for integral computing
 -------------------------------------------------------
 OpenMP Integral computing Module                
 Release: version 1.0, May 2013, Q-Chem Inc. Pittsburgh 
 -------------------------------------------------------
 -------------------------------------------------------
 OpenMP BLAS3 based DFT computing Module                
 Release: version 1.0, May 2013, Q-Chem Inc. Pittsburgh 
 -------------------------------------------------------
 A restricted SCF calculation will be
 performed using DIIS
 SCF converges when DIIS error is below 1.0e-08
 ---------------------------------------
  Cycle       Energy         DIIS error
 ---------------------------------------
    1    -584.3205505535      9.36e-04  
    2    -584.3289959073      1.29e-04  
    3    -584.3287247745      2.72e-04  
    4    -584.3290487281      7.12e-05  
    5    -584.3290733084      1.80e-05  
    6    -584.3290740374      1.30e-05  
    7    -584.3290749762      1.54e-06  
    8    -584.3290749875      7.87e-07  
    9    -584.3290749902      2.09e-07  
   10    -584.3290749903      7.77e-08  
   11    -584.3290749904      3.65e-08  
   12    -584.3290749904      7.51e-09  Convergence criterion met
 ---------------------------------------
 SCF time:   CPU 61.23s  wall 30.00s 
 SCF   energy in the final basis set =     -584.3290749904
 Total energy in the final basis set =     -584.3290749904
 
 --------------------------------------------------------------
 
                    Orbital Energies (a.u.)
 --------------------------------------------------------------
 
 Alpha MOs
 -- Occupied --
 -9.935  -9.924  -9.922  -9.921  -9.919  -9.919  -9.918  -9.918
 -9.916  -9.912  -9.911  -9.909  -9.906  -9.904  -9.901  -0.755
 -0.724  -0.698  -0.694  -0.668  -0.634  -0.604  -0.602  -0.594
 -0.549  -0.518  -0.501  -0.487  -0.480  -0.436  -0.415  -0.405
 -0.396  -0.384  -0.377  -0.368  -0.364  -0.352  -0.345  -0.344
 -0.340  -0.332  -0.324  -0.318  -0.310  -0.299  -0.296  -0.293
 -0.289  -0.284  -0.269  -0.259  -0.248  -0.240  -0.200  -0.156
 -- Virtual --
 -0.066  -0.003   0.039   0.060   0.070   0.072   0.089   0.097
  0.101   0.103   0.107   0.116   0.128   0.134   0.137   0.140
  0.148   0.150   0.158   0.164   0.166   0.170   0.176   0.182
  0.185   0.189   0.195   0.203   0.215   0.218   0.239   0.245
  0.249   0.256   0.294   0.325   0.347   0.358   0.369   0.377
  0.435   0.481   0.487   0.495   0.498   0.501   0.508   0.518
  0.528   0.538   0.545   0.550   0.558   0.566   0.576   0.584
  0.601   0.609   0.613   0.616   0.627   0.629   0.633   0.651
  0.660   0.664   0.688   0.704   0.709   0.716   0.732   0.764
  0.773   0.776   0.783   0.794   0.801   0.808   0.820   0.838
  0.851   0.858   0.860   0.872   0.875   0.885   0.902   0.903
  0.911   0.914   0.923   0.932   0.935   0.942   0.947   0.959
  0.965   0.981   0.986   0.996   1.023   1.048   1.061   1.085
  1.099   1.128   1.138   1.174   1.184   1.197   1.227   1.275
  1.284   1.296   1.323   1.370   1.424   1.443   1.517   1.556
  1.633   1.718   1.802
 --------------------------------------------------------------
 
          Ground-State Mulliken Net Atomic Charges

     Atom                 Charge (a.u.)
  ----------------------------------------
      1 C                    -0.285735
      2 C                    -0.036767
      3 C                    -0.095105
      4 C                    -0.095750
      5 C                    -0.075659
      6 C                    -0.162076
      7 H                     0.106647
      8 H                     0.105999
      9 H                     0.091789
     10 H                     0.088450
     11 H                     0.089384
     12 H                     0.103961
     13 C                     0.092092
     14 H                     0.096247
     15 C                     0.095572
     16 C                    -0.274120
     17 C                    -0.216897
     18 H                     0.110157
     19 H                     0.122367
     20 C                    -0.208969
     21 H                     0.115227
     22 H                     0.101265
     23 C                     0.012881
     24 H                     0.098177
     25 H                     0.106214
     26 C                    -0.444097
     27 H                     0.142237
     28 H                     0.128142
     29 H                     0.120296
     30 C                    -0.369133
     31 H                     0.122434
     32 H                     0.114257
     33 H                     0.117768
     34 C                    -0.362304
     35 H                     0.119397
     36 H                     0.114896
     37 H                     0.110756
  ----------------------------------------
  Sum of atomic charges =    -0.000000

 -----------------------------------------------------------------
                    Cartesian Multipole Moments
 -----------------------------------------------------------------
    Charge (ESU x 10^10)
                -0.0000
    Dipole Moment (Debye)
         X      -1.0981      Y      -0.1867      Z      -0.0197
       Tot       1.1141
    Quadrupole Moments (Debye-Ang)
        XX     -93.0307     XY       0.7260     YY     -90.9517
        XZ       0.3069     YZ       3.1941     ZZ     -95.9790
    Octopole Moments (Debye-Ang^2)
       XXX      -2.4827    XXY       1.7984    XYY      -0.4745
       YYY      -2.3758    XXZ      -1.1808    XYZ      11.1723
       YYZ       0.9358    XZZ      -7.5084    YZZ      -1.2122
       ZZZ      -0.7150
    Hexadecapole Moments (Debye-Ang^3)
      XXXX   -5735.2819   XXXY      44.0720   XXYY   -1152.4863
      XYYY      23.5595   YYYY   -1163.1972   XXXZ       9.1881
      XXYZ      55.7251   XYYZ       3.5322   YYYZ       9.4791
      XXZZ   -1076.0058   XYZZ       8.3915   YYZZ    -251.2648
      XZZZ      13.9744   YZZZ       6.9665   ZZZZ    -346.8537
 -----------------------------------------------------------------
 Calculating analytic gradient of the SCF energy
 Gradient of SCF Energy
            1           2           3           4           5           6
    1   0.0021224  -0.0008990   0.0001438  -0.0001453  -0.0029777  -0.0009128
    2  -0.0010315  -0.0000089   0.0001641   0.0000848  -0.0016411  -0.0011736
    3  -0.0008231   0.0000204   0.0000812   0.0000595   0.0011784  -0.0000905
            7           8           9          10          11          12
    1   0.0007293   0.0001234  -0.0009780   0.0010692  -0.0009688  -0.0002507
    2   0.0001043  -0.0003693   0.0001681  -0.0001163   0.0001277  -0.0029894
    3  -0.0000004  -0.0002369   0.0001542  -0.0000405   0.0000914   0.0009341
           13          14          15          16          17          18
    1  -0.0016320  -0.0008692   0.0038134  -0.0009846  -0.0020293   0.0005507
    2  -0.0044507  -0.0000374   0.0051829  -0.0019555   0.0000948   0.0000743
    3   0.0008868   0.0009014   0.0012229  -0.0004020  -0.0001228  -0.0005693
           19          20          21          22          23          24
    1  -0.0003203  -0.0011811   0.0004221  -0.0000461   0.0003522   0.0006922
    2   0.0001625   0.0011017  -0.0005307   0.0000062   0.0007769  -0.0002034
    3   0.0001711  -0.0003956  -0.0002101   0.0008853  -0.0005173  -0.0005526
           25          26          27          28          29          30
    1   0.0004156   0.0013494   0.0031690  -0.0004527   0.0004466  -0.0006229
    2   0.0005620   0.0009829   0.0025404   0.0001309   0.0001274   0.0001318
    3   0.0003563  -0.0028711  -0.0014863   0.0010791   0.0007918   0.0002399
           31          32          33          34          35          36
    1   0.0002966   0.0001311  -0.0006125   0.0002755  -0.0001314  -0.0005142
    2   0.0005105  -0.0004098   0.0000752   0.0011182   0.0004578   0.0003031
    3   0.0001046   0.0004221  -0.0000800  -0.0006912   0.0005009  -0.0008648
           37
    1   0.0004262
    2  -0.0000708
    3  -0.0001269
 Max gradient component =       5.183E-03
 RMS gradient           =       1.190E-03
 Gradient time:  CPU 11.32 s  wall 5.67 s
 Geometry Optimization Parameters
   NAtoms,    NIC,     NZ,  NCons,   NDum,   NFix, NCnnct, MaxDiis
       37     268       0       0       0       0       0       0

 Cartesian Hessian Update
 Hessian Updated using BFGS Update


** GEOMETRY OPTIMIZATION IN DELOCALIZED INTERNAL COORDINATES **
   Searching for a Minimum

   Optimization Cycle:   3

                       Coordinates (Angstroms)
     ATOM                X               Y               Z
      1  C         6.4849943749   -0.1832389214   -0.3172889693
      2  C         5.3040674523    0.3591977376    0.0971782800
      3  C         3.9880750363   -0.1937768557   -0.1815138341
      4  C         2.8013198579    0.3597100767    0.2406525214
      5  C         1.4862556561   -0.1808152801   -0.0463846381
      6  C         0.3116513749    0.3986496256    0.3706098141
      7  H         7.4479479364    0.2765407670   -0.0800392884
      8  H         6.5177915429   -1.1056593776   -0.9071867945
      9  H         5.3166493047    1.2861216366    0.6872813726
     10  H         3.9664614208   -1.1192273050   -0.7734449134
     11  H         2.8284525373    1.2834444768    0.8361782430
     12  H         1.4644382562   -1.0914133162   -0.6570953107
     13  C        -1.0708437804   -0.0474369272    0.1139448016
     14  H         0.3992010771    1.3401792957    0.9309025231
     15  C        -1.4321303449   -1.3714522895    0.0819205197
     16  C        -2.8670362358   -1.8326325303   -0.2152444954
     17  C        -3.9297731348   -0.7250678596   -0.0062670148
     18  H        -3.0977795244   -2.7170874658    0.4077135202
     19  H        -2.9150244290   -2.1937421513   -1.2654418070
     20  C        -3.4474147256    0.5805621999   -0.6814959744
     21  H        -4.0767716683   -0.5623111580    1.0770851126
     22  H        -4.9065466417   -1.0445805872   -0.4108525518
     23  C        -2.1089001480    1.1193670852   -0.0703709516
     24  H        -4.2126433364    1.3745849992   -0.6158283147
     25  H        -3.2862991463    0.3863587263   -1.7596581305
     26  C        -0.4714372701   -2.5241408059    0.3510181724
     27  H         0.5051434982   -2.1879440994    0.7263905486
     28  H        -0.2927924795   -3.1287460357   -0.5589629093
     29  H        -0.9116814450   -3.2146152256    1.0968629924
     30  C        -2.3999453545    1.7962974018    1.3155363384
     31  H        -2.8069099441    1.0770972625    2.0439641324
     32  H        -3.1314200208    2.6144849536    1.1920713290
     33  H        -1.4873881327    2.2334260511    1.7542178353
     34  C        -1.5562581780    2.2124761802   -1.0508968708
     35  H        -1.3162356687    1.7736169049   -2.0333937613
     36  H        -0.6461038339    2.7005726728   -0.6688430949
     37  H        -2.3189244160    2.9966391990   -1.2020070234
   Point Group: c1    Number of degrees of freedom:   105


   Energy is   -584.329074990

 Hessian Updated using BFGS Update

 94 Hessian modes will be used to form the next step
  Hessian Eigenvalues:
     0.002691    0.002779    0.004017    0.006767    0.008365    0.008851
     0.010059    0.010648    0.011941    0.012192    0.014946    0.020378
     0.021190    0.021342    0.021509    0.022333    0.030262    0.030396
     0.031009    0.031009    0.031190    0.032426    0.045658    0.046884
     0.050161    0.052810    0.053487    0.053685    0.054151    0.054589
     0.055004    0.060360    0.065093    0.068716    0.074057    0.076871
     0.078355    0.082585    0.095152    0.097776    0.119836    0.133482
     0.146242    0.159250    0.159660    0.159944    0.160720    0.165879
     0.185759    0.206011    0.220000    0.220013    0.220265    0.223960
     0.227596    0.249018    0.262615    0.269637    0.275328    0.277957
     0.284466    0.293600    0.297267    0.306474    0.310694    0.320797
     0.322327    0.323567    0.323907    0.324105    0.324123    0.324458
     0.324550    0.325537    0.326077    0.326211    0.327049    0.327070
     0.327316    0.335631    0.337008    0.347916    0.350812    0.350896
     0.352005    0.352859    0.353928    0.355163    0.355778    0.402454
     0.553696    0.574249    0.586241    0.607396

 Minimum Search - Taking Simple RFO Step
 Searching for Lamda that Minimizes Along All modes
 Value Taken    Lamda =  -0.00388405
 Calculated Step too Large.  Step scaled by  0.861140
 Step Taken.  Stepsize is  0.300000

                             Maximum     Tolerance    Cnvgd?
         Gradient           0.020311      0.000300      NO
         Displacement       0.101771      0.001200      NO
         Energy change     -0.000547      0.000001      NO


 New Cartesian Coordinates Obtained by Inverse Iteration

 Displacement from previous Coordinates is:  1.421611
 ----------------------------------------------------------------
             Standard Nuclear Orientation (Angstroms)
    I     Atom           X                Y                Z
 ----------------------------------------------------------------
    1      C       6.4756076814    -0.0629178586    -0.4186139065
    2      C       5.2928834426     0.4101567498     0.0636190425
    3      C       3.9886576761    -0.1417634721    -0.2381383033
    4      C       2.8007732461     0.3443171393     0.2540797068
    5      C       1.4965545730    -0.1905829922    -0.0549109218
    6      C       0.3194901196     0.3304527902     0.4268979602
    7      H       7.4326073237     0.3956664247    -0.1586367758
    8      H       6.5192413810    -0.9272095301    -1.0911180038
    9      H       5.2991761996     1.2810977934     0.7358146546
   10      H       3.9680818516    -1.0113582507    -0.9120899967
   11      H       2.8273113279     1.2119563161     0.9313265068
   12      H       1.4730359296    -1.0406776711    -0.7491240269
   13      C      -1.0642201515    -0.0944255537     0.1521820185
   14      H       0.4110328782     1.2317172151     1.0516666052
   15      C      -1.4703954219    -1.4077452382     0.1365671353
   16      C      -2.9059932462    -1.8282206693    -0.2135143830
   17      C      -3.9453263576    -0.6900264453    -0.0690707178
   18      H      -3.1863398648    -2.6960190846     0.4115440836
   19      H      -2.9227120088    -2.2079083054    -1.2584131908
   20      C      -3.3940208798     0.5926537246    -0.7309564167
   21      H      -4.1446863145    -0.5094899972     1.0034146582
   22      H      -4.9084626401    -0.9815522744    -0.5223121507
   23      C      -2.0671333288     1.0972078429    -0.0680653090
   24      H      -4.1399990333     1.4063477700    -0.6949183358
   25      H      -3.1965821365     0.3899207022    -1.8012371369
   26      C      -0.5724604422    -2.5891110636     0.4861443722
   27      H       0.3739047331    -2.2808829289     0.9489397863
   28      H      -0.3229992804    -3.1949746475    -0.4074858661
   29      H      -1.1038638673    -3.2724063770     1.1752643611
   30      C      -2.3945299510     1.7803314337     1.3070564084
   31      H      -2.8668212882     1.0737031575     2.0075491572
   32      H      -3.0849668749     2.6273801908     1.1493134944
   33      H      -1.4862236550     2.1774529656     1.7904481150
   34      C      -1.4504410205     2.1761111838    -1.0232899107
   35      H      -1.1794175170     1.7303010840    -1.9944289128
   36      H      -0.5474005972     2.6412696438    -0.5996319329
   37      H      -2.1911730192     2.9746672936    -1.2045604603
 ----------------------------------------------------------------
 Molecular Point Group                 C1    NOp =  1
 Largest Abelian Subgroup              C1    NOp =  1
 Nuclear Repulsion Energy =   942.4529621765 hartrees
 There are       56 alpha and       56 beta electrons
 Applying Cartesian multipole field
    Component          Value
    ---------          -----
     (2,0,0)        1.00000E-12
     (0,2,0)        2.00000E-11
     (0,0,2)       -3.00000E-11
 Nucleus-field energy     =     0.0000000138 hartrees
 Requested basis set is 6-31G
 There are 89 shells and 179 basis functions
 A cutoff of  1.0D-11 yielded   2808 shell pairs
 There are     12486 function pairs
 Smallest overlap matrix eigenvalue = 2.18E-03
 Guess MOs from SCF MO coefficient file

 -----------------------------------------------------------------------
  General SCF calculation program by
  Eric Jon Sundstrom, Paul Horn, Yuezhi Mao, Dmitri Zuev, Alec White,
  David Stuck, Shaama M.S., Shane Yost, Joonho Lee, David Small,
  Daniel Levine, Susi Lehtola, Hugh Burton, Evgeny Epifanovsky
 -----------------------------------------------------------------------
 Exchange:  B88      Correlation:  LYP
 Using SG-1 standard quadrature grid
 using 2 threads for integral computing
 -------------------------------------------------------
 OpenMP Integral computing Module                
 Release: version 1.0, May 2013, Q-Chem Inc. Pittsburgh 
 -------------------------------------------------------
 -------------------------------------------------------
 OpenMP BLAS3 based DFT computing Module                
 Release: version 1.0, May 2013, Q-Chem Inc. Pittsburgh 
 -------------------------------------------------------
 A restricted SCF calculation will be
 performed using DIIS
 SCF converges when DIIS error is below 1.0e-08
 ---------------------------------------
  Cycle       Energy         DIIS error
 ---------------------------------------
    1    -584.3116487671      1.32e-03  
    2    -584.3301668228      7.64e-05  
    3    -584.3301205515      1.32e-04  
    4    -584.3301919665      4.95e-05  
    5    -584.3302032934      1.69e-05  
    6    -584.3302044207      7.78e-06  
    7    -584.3302047453      1.25e-06  
    8    -584.3302047529      2.93e-07  
    9    -584.3302047531      2.19e-07  
   10    -584.3302047533      5.93e-08  
   11    -584.3302047533      1.39e-08  
   12    -584.3302047533      7.14e-09  Convergence criterion met
 ---------------------------------------
 SCF time:   CPU 61.11s  wall 31.00s 
 SCF   energy in the final basis set =     -584.3302047533
 Total energy in the final basis set =     -584.3302047533
 
 --------------------------------------------------------------
 
                    Orbital Energies (a.u.)
 --------------------------------------------------------------
 
 Alpha MOs
 -- Occupied --
 -9.934  -9.924  -9.922  -9.921  -9.919  -9.919  -9.919  -9.918
 -9.915  -9.912  -9.911  -9.909  -9.906  -9.904  -9.901  -0.754
 -0.726  -0.697  -0.695  -0.668  -0.635  -0.603  -0.601  -0.594
 -0.549  -0.518  -0.500  -0.487  -0.479  -0.435  -0.415  -0.405
 -0.396  -0.384  -0.380  -0.367  -0.363  -0.352  -0.345  -0.343
 -0.340  -0.332  -0.324  -0.317  -0.308  -0.299  -0.296  -0.292
 -0.290  -0.286  -0.269  -0.259  -0.248  -0.239  -0.198  -0.157
 -- Virtual --
 -0.066  -0.002   0.037   0.060   0.070   0.073   0.089   0.097
  0.101   0.103   0.107   0.116   0.128   0.133   0.137   0.140
  0.148   0.149   0.160   0.163   0.165   0.168   0.175   0.181
  0.187   0.191   0.195   0.205   0.216   0.217   0.240   0.244
  0.250   0.257   0.295   0.324   0.348   0.359   0.372   0.380
  0.431   0.478   0.486   0.493   0.498   0.502   0.509   0.518
  0.528   0.540   0.543   0.550   0.553   0.565   0.577   0.580
  0.602   0.610   0.611   0.616   0.624   0.633   0.634   0.647
  0.661   0.664   0.684   0.705   0.708   0.720   0.731   0.764
  0.771   0.774   0.782   0.795   0.796   0.807   0.820   0.837
  0.847   0.856   0.859   0.873   0.874   0.885   0.899   0.905
  0.909   0.914   0.924   0.933   0.933   0.941   0.948   0.956
  0.966   0.974   0.983   0.992   1.019   1.043   1.058   1.081
  1.096   1.115   1.142   1.164   1.177   1.201   1.234   1.266
  1.281   1.297   1.312   1.365   1.435   1.439   1.525   1.547
  1.636   1.721   1.794
 --------------------------------------------------------------
 
          Ground-State Mulliken Net Atomic Charges

     Atom                 Charge (a.u.)
  ----------------------------------------
      1 C                    -0.285664
      2 C                    -0.037133
      3 C                    -0.093376
      4 C                    -0.095380
      5 C                    -0.065538
      6 C                    -0.167839
      7 H                     0.106644
      8 H                     0.106104
      9 H                     0.092052
     10 H                     0.089071
     11 H                     0.089759
     12 H                     0.098219
     13 C                     0.084813
     14 H                     0.096429
     15 C                     0.096714
     16 C                    -0.273958
     17 C                    -0.216732
     18 H                     0.109340
     19 H                     0.122558
     20 C                    -0.208077
     21 H                     0.114891
     22 H                     0.101345
     23 C                     0.013739
     24 H                     0.098047
     25 H                     0.106136
     26 C                    -0.439971
     27 H                     0.140532
     28 H                     0.128027
     29 H                     0.120752
     30 C                    -0.368977
     31 H                     0.122317
     32 H                     0.114459
     33 H                     0.117830
     34 C                    -0.361167
     35 H                     0.118962
     36 H                     0.115239
     37 H                     0.109835
  ----------------------------------------
  Sum of atomic charges =    -0.000000

 -----------------------------------------------------------------
                    Cartesian Multipole Moments
 -----------------------------------------------------------------
    Charge (ESU x 10^10)
                -0.0000
    Dipole Moment (Debye)
         X      -1.0436      Y      -0.1747      Z      -0.0197
       Tot       1.0583
    Quadrupole Moments (Debye-Ang)
        XX     -92.8074     XY       0.8601     YY     -91.5391
        XZ       0.2640     YZ       3.3173     ZZ     -95.4002
    Octopole Moments (Debye-Ang^2)
       XXX      -1.6057    XXY       2.4489    XYY      -2.5829
       YYY      -2.3980    XXZ      -1.9867    XYZ      11.8756
       YYZ       1.3128    XZZ      -5.2212    YZZ      -1.2339
       ZZZ      -0.8682
    Hexadecapole Moments (Debye-Ang^3)
      XXXX   -5708.6282   XXXY      10.5734   XXYY   -1157.8237
      XYYY     -15.8199   YYYY   -1161.8651   XXXZ      22.7166
      XXYZ      60.9597   XYYZ      11.4968   YYYZ      17.4281
      XXZZ   -1063.4775   XYZZ      -6.7512   YYZZ    -253.6002
      XZZZ      33.7628   YZZZ      16.7930   ZZZZ    -362.0060
 -----------------------------------------------------------------
 Calculating analytic gradient of the SCF energy
 Gradient of SCF Energy
            1           2           3           4           5           6
    1   0.0002227  -0.0027606   0.0029331  -0.0035673   0.0044972  -0.0033865
    2   0.0004100  -0.0026844   0.0030990  -0.0028470   0.0029802  -0.0025366
    3   0.0002779  -0.0018417   0.0020622  -0.0018435   0.0018738  -0.0023139
            7           8           9          10          11          12
    1   0.0004575   0.0002896  -0.0009561   0.0006226  -0.0005665   0.0008755
    2  -0.0001288  -0.0005752   0.0006772  -0.0008096   0.0007878  -0.0003234
    3  -0.0001764  -0.0004869   0.0005834  -0.0006117   0.0006647  -0.0008483
           13          14          15          16          17          18
    1   0.0018776  -0.0005001   0.0025208  -0.0002567  -0.0022939   0.0009631
    2  -0.0013562   0.0000984   0.0022016  -0.0009611   0.0000195  -0.0000175
    3   0.0015149   0.0004938   0.0008666  -0.0001459  -0.0005891  -0.0008509
           19          20          21          22          23          24
    1  -0.0007423  -0.0008186   0.0002083   0.0002706   0.0002144   0.0006696
    2  -0.0001443   0.0005901  -0.0003001   0.0005569   0.0004391  -0.0007135
    3   0.0002108  -0.0010634   0.0000335   0.0008800   0.0002043  -0.0000492
           25          26          27          28          29          30
    1   0.0003778  -0.0002364  -0.0000885   0.0000643  -0.0005860  -0.0007466
    2   0.0005694   0.0000309   0.0001836  -0.0000614  -0.0003928   0.0007294
    3   0.0003830   0.0016452  -0.0010947   0.0007332  -0.0005525   0.0011678
           31          32          33          34          35          36
    1   0.0001074   0.0003160  -0.0003824   0.0013100  -0.0002834  -0.0006652
    2   0.0002233  -0.0005347   0.0000700   0.0013104   0.0001565  -0.0002913
    3  -0.0003146  -0.0000886  -0.0001810  -0.0009167   0.0006014  -0.0004595
           37
    1   0.0000392
    2  -0.0004554
    3   0.0002323
 Max gradient component =       4.497E-03
 RMS gradient           =       1.262E-03
 Gradient time:  CPU 11.34 s  wall 5.67 s
 Geometry Optimization Parameters
   NAtoms,    NIC,     NZ,  NCons,   NDum,   NFix, NCnnct, MaxDiis
       37     268       0       0       0       0       0       0

 Cartesian Hessian Update
 Hessian Updated using BFGS Update


** GEOMETRY OPTIMIZATION IN DELOCALIZED INTERNAL COORDINATES **
   Searching for a Minimum

   Optimization Cycle:   4

                       Coordinates (Angstroms)
     ATOM                X               Y               Z
      1  C         6.4756076814   -0.0629178586   -0.4186139065
      2  C         5.2928834426    0.4101567498    0.0636190425
      3  C         3.9886576761   -0.1417634721   -0.2381383033
      4  C         2.8007732461    0.3443171393    0.2540797068
      5  C         1.4965545730   -0.1905829922   -0.0549109218
      6  C         0.3194901196    0.3304527902    0.4268979602
      7  H         7.4326073237    0.3956664247   -0.1586367758
      8  H         6.5192413810   -0.9272095301   -1.0911180038
      9  H         5.2991761996    1.2810977934    0.7358146546
     10  H         3.9680818516   -1.0113582507   -0.9120899967
     11  H         2.8273113279    1.2119563161    0.9313265068
     12  H         1.4730359296   -1.0406776711   -0.7491240269
     13  C        -1.0642201515   -0.0944255537    0.1521820185
     14  H         0.4110328782    1.2317172151    1.0516666052
     15  C        -1.4703954219   -1.4077452382    0.1365671353
     16  C        -2.9059932462   -1.8282206693   -0.2135143830
     17  C        -3.9453263576   -0.6900264453   -0.0690707178
     18  H        -3.1863398648   -2.6960190846    0.4115440836
     19  H        -2.9227120088   -2.2079083054   -1.2584131908
     20  C        -3.3940208798    0.5926537246   -0.7309564167
     21  H        -4.1446863145   -0.5094899972    1.0034146582
     22  H        -4.9084626401   -0.9815522744   -0.5223121507
     23  C        -2.0671333288    1.0972078429   -0.0680653090
     24  H        -4.1399990333    1.4063477700   -0.6949183358
     25  H        -3.1965821365    0.3899207022   -1.8012371369
     26  C        -0.5724604422   -2.5891110636    0.4861443722
     27  H         0.3739047331   -2.2808829289    0.9489397863
     28  H        -0.3229992804   -3.1949746475   -0.4074858661
     29  H        -1.1038638673   -3.2724063770    1.1752643611
     30  C        -2.3945299510    1.7803314337    1.3070564084
     31  H        -2.8668212882    1.0737031575    2.0075491572
     32  H        -3.0849668749    2.6273801908    1.1493134944
     33  H        -1.4862236550    2.1774529656    1.7904481150
     34  C        -1.4504410205    2.1761111838   -1.0232899107
     35  H        -1.1794175170    1.7303010840   -1.9944289128
     36  H        -0.5474005972    2.6412696438   -0.5996319329
     37  H        -2.1911730192    2.9746672936   -1.2045604603
   Point Group: c1    Number of degrees of freedom:   105


   Energy is   -584.330204753

 Hessian Updated using BFGS Update

 96 Hessian modes will be used to form the next step
  Hessian Eigenvalues:
     0.002694    0.002799    0.004049    0.006893    0.008407    0.010051
     0.010417    0.010664    0.011944    0.012192    0.016186    0.020548
     0.021190    0.021343    0.021509    0.023998    0.030333    0.030388
     0.031009    0.031009    0.031187    0.034175    0.045659    0.046920
     0.050131    0.052638    0.053516    0.053684    0.054230    0.054588
     0.054978    0.060269    0.064603    0.068297    0.074507    0.076848
     0.078270    0.082499    0.095145    0.097667    0.119781    0.133451
     0.147562    0.159326    0.159661    0.159847    0.159955    0.160000
     0.161056    0.163415    0.185907    0.206683    0.219998    0.220013
     0.220121    0.226204    0.227615    0.248999    0.263265    0.270133
     0.275539    0.277709    0.286874    0.294988    0.297403    0.306460
     0.311874    0.320765    0.322366    0.323555    0.323927    0.324091
     0.324131    0.324467    0.324550    0.325377    0.325878    0.326244
     0.327016    0.327073    0.327316    0.335299    0.339365    0.347980
     0.350815    0.350960    0.352060    0.352841    0.353670    0.355531
     0.355971    0.417586    0.537002    0.574244    0.579685    0.610619

 Minimum Search - Taking Simple RFO Step
 Searching for Lamda that Minimizes Along All modes
 Value Taken    Lamda =  -0.00061156
 Step Taken.  Stepsize is  0.116934

                             Maximum     Tolerance    Cnvgd?
         Gradient           0.004211      0.000300      NO
         Displacement       0.032537      0.001200      NO
         Energy change     -0.001130      0.000001      NO


 New Cartesian Coordinates Obtained by Inverse Iteration

 Displacement from previous Coordinates is:  0.304930
 ----------------------------------------------------------------
             Standard Nuclear Orientation (Angstroms)
    I     Atom           X                Y                Z
 ----------------------------------------------------------------
    1      C       6.4771493505    -0.0854856720    -0.4012895122
    2      C       5.2997670867     0.4102223017     0.0670231202
    3      C       3.9870751107    -0.1456710323    -0.2275130988
    4      C       2.8048082603     0.3621624621     0.2517480338
    5      C       1.4917141121    -0.1805956058    -0.0461111327
    6      C       0.3188005841     0.3563276349     0.4223095617
    7      H       7.4359866533     0.3724298403    -0.1494280751
    8      H       6.5118592325    -0.9656201166    -1.0508608893
    9      H       5.3181372601     1.2957882390     0.7162221105
   10      H       3.9583172999    -1.0298999019    -0.8781370174
   11      H       2.8393222092     1.2449163637     0.9050335099
   12      H       1.4628076681    -1.0486858239    -0.7136638107
   13      C      -1.0676530331    -0.0843830814     0.1484907148
   14      H       0.4111028450     1.2758366263     1.0172561666
   15      C      -1.4671881766    -1.4032836490     0.1285703138
   16      C      -2.9010832500    -1.8285691526    -0.2094361983
   17      C      -3.9426771409    -0.6968282523    -0.0599893595
   18      H      -3.1827386696    -2.6927887907     0.4226211771
   19      H      -2.9166492296    -2.2096539376    -1.2539965847
   20      C      -3.4051996280     0.5889847050    -0.7213455856
   21      H      -4.1433053509    -0.5175669309     1.0126178466
   22      H      -4.9036134524    -0.9985318744    -0.5151502968
   23      C      -2.0768419651     1.0973056800    -0.0676066537
   24      H      -4.1563222544     1.4002247126    -0.6804726382
   25      H      -3.2175301129     0.3834746890    -1.7938337665
   26      C      -0.5607723574    -2.5855494758     0.4531338478
   27      H       0.3830469164    -2.2880453011     0.9284391351
   28      H      -0.3141432032    -3.1726774264    -0.4546024648
   29      H      -1.0847490422    -3.2808371241     1.1362387165
   30      C      -2.3889409567     1.7792947713     1.3089550529
   31      H      -2.8623954221     1.0752539621     2.0126707579
   32      H      -3.0717454489     2.6359276493     1.1613632889
   33      H      -1.4718435016     2.1641731795     1.7874557559
   34      C      -1.4670932884     2.1742720235    -1.0258289222
   35      H      -1.1956924615     1.7276386826    -1.9980512351
   36      H      -0.5623089241     2.6414894944    -0.6035514651
   37      H      -2.2072182521     2.9743891927    -1.2079689955
 ----------------------------------------------------------------
 Molecular Point Group                 C1    NOp =  1
 Largest Abelian Subgroup              C1    NOp =  1
 Nuclear Repulsion Energy =   942.5019175688 hartrees
 There are       56 alpha and       56 beta electrons
 Applying Cartesian multipole field
    Component          Value
    ---------          -----
     (2,0,0)        1.00000E-12
     (0,2,0)        2.00000E-11
     (0,0,2)       -3.00000E-11
 Nucleus-field energy     =     0.0000000139 hartrees
 Requested basis set is 6-31G
 There are 89 shells and 179 basis functions
 A cutoff of  1.0D-11 yielded   2807 shell pairs
 There are     12485 function pairs
 Smallest overlap matrix eigenvalue = 2.18E-03
 Guess MOs from SCF MO coefficient file

 -----------------------------------------------------------------------
  General SCF calculation program by
  Eric Jon Sundstrom, Paul Horn, Yuezhi Mao, Dmitri Zuev, Alec White,
  David Stuck, Shaama M.S., Shane Yost, Joonho Lee, David Small,
  Daniel Levine, Susi Lehtola, Hugh Burton, Evgeny Epifanovsky
 -----------------------------------------------------------------------
 Exchange:  B88      Correlation:  LYP
 Using SG-1 standard quadrature grid
[...]
      5 C                    -0.069831
      6 C                    -0.164760
      7 H                     0.106227
      8 H                     0.105996
      9 H                     0.092092
     10 H                     0.089026
     11 H                     0.089618
     12 H                     0.099281
     13 C                     0.092064
     14 H                     0.096193
     15 C                     0.093611
     16 C                    -0.274651
     17 C                    -0.217397
     18 H                     0.110874
     19 H                     0.122608
     20 C                    -0.208002
     21 H                     0.114991
     22 H                     0.101508
     23 C                     0.010808
     24 H                     0.098061
     25 H                     0.105905
     26 C                    -0.441166
     27 H                     0.142483
     28 H                     0.130438
     29 H                     0.117815
     30 C                    -0.368814
     31 H                     0.122055
     32 H                     0.113825
     33 H                     0.117981
     34 C                    -0.360899
     35 H                     0.119175
     36 H                     0.114074
     37 H                     0.110021
  ----------------------------------------
  Sum of atomic charges =    -0.000000

 -----------------------------------------------------------------
                    Cartesian Multipole Moments
 -----------------------------------------------------------------
    Charge (ESU x 10^10)
                -0.0000
    Dipole Moment (Debye)
         X      -1.0412      Y      -0.2013      Z      -0.0382
       Tot       1.0611
    Quadrupole Moments (Debye-Ang)
        XX     -92.8606     XY       0.8833     YY     -91.0910
        XZ       0.2794     YZ       3.2321     ZZ     -95.8595
    Octopole Moments (Debye-Ang^2)
       XXX      -1.8087    XXY       2.0935    XYY      -0.6914
       YYY      -2.4434    XXZ      -1.6422    XYZ      11.4069
       YYZ       1.0946    XZZ      -6.6902    YZZ      -1.3260
       ZZZ      -0.9737
    Hexadecapole Moments (Debye-Ang^3)
      XXXX   -5730.6303   XXXY      24.4147   XXYY   -1152.8621
      XYYY      -1.3147   YYYY   -1163.6143   XXXZ      19.0383
      XXYZ      57.7606   XYYZ       8.8090   YYYZ      13.8190
      XXZZ   -1072.6607   XYZZ      -1.4928   YYZZ    -252.3457
      XZZZ      28.3372   YZZZ      12.5349   ZZZZ    -351.1783
 -----------------------------------------------------------------
 Calculating analytic gradient of the SCF energy
 Gradient of SCF Energy
            1           2           3           4           5           6
    1   0.0000041   0.0000137  -0.0000239   0.0000384  -0.0000574   0.0000430
    2  -0.0000061   0.0000079  -0.0000078   0.0000127   0.0000059  -0.0000347
    3  -0.0000195  -0.0000065  -0.0000114   0.0000003   0.0000045  -0.0000257
            7           8           9          10          11          12
    1   0.0000003  -0.0000058   0.0000056  -0.0000019   0.0000008   0.0000019
    2  -0.0000031  -0.0000002  -0.0000042   0.0000007  -0.0000041  -0.0000008
    3  -0.0000210  -0.0000179  -0.0000161  -0.0000125  -0.0000131  -0.0000124
           13          14          15          16          17          18
    1  -0.0000282  -0.0000010  -0.0000063  -0.0000049   0.0000078   0.0000014
    2  -0.0000137   0.0000130   0.0000397  -0.0000070   0.0000106   0.0000062
    3   0.0000327   0.0000006  -0.0000078  -0.0000151   0.0000007   0.0000224
           19          20          21          22          23          24
    1  -0.0000027  -0.0000121  -0.0000041  -0.0000046   0.0000001  -0.0000033
    2  -0.0000058  -0.0000119   0.0000006   0.0000035   0.0000122   0.0000019
    3   0.0000136   0.0000068   0.0000149   0.0000075   0.0000251   0.0000129
           25          26          27          28          29          30
    1  -0.0000041   0.0000164   0.0000012  -0.0000087   0.0000019   0.0000067
    2  -0.0000003  -0.0000021  -0.0000113   0.0000030   0.0000026  -0.0000150
    3   0.0000087  -0.0000104  -0.0000020  -0.0000043   0.0000098  -0.0000118
           31          32          33          34          35          36
    1   0.0000039   0.0000063   0.0000072   0.0000137  -0.0000068   0.0000053
    2   0.0000007   0.0000007   0.0000043   0.0000080  -0.0000002  -0.0000065
    3   0.0000096   0.0000085   0.0000069  -0.0000025   0.0000042   0.0000084
           37
    1  -0.0000038
    2   0.0000006
    3   0.0000120
 Max gradient component =       5.744E-05
 RMS gradient           =       1.368E-05
 Gradient time:  CPU 11.33 s  wall 5.67 s
 Geometry Optimization Parameters
   NAtoms,    NIC,     NZ,  NCons,   NDum,   NFix, NCnnct, MaxDiis
       37     268       0       0       0       0       0       0

 Cartesian Hessian Update
 Hessian Updated using BFGS Update


** GEOMETRY OPTIMIZATION IN DELOCALIZED INTERNAL COORDINATES **
   Searching for a Minimum

   Optimization Cycle:  12

                       Coordinates (Angstroms)
     ATOM                X               Y               Z
      1  C         6.4822691278   -0.1104558268   -0.3682922308
      2  C         5.2993844131    0.4022281151    0.0681990280
      3  C         3.9915622224   -0.1689957447   -0.2094301869
      4  C         2.8042898844    0.3581525812    0.2373716299
      5  C         1.4954857812   -0.1967332974   -0.0455444698
      6  C         0.3195454320    0.3654297444    0.3881718426
      7  H         7.4379904235    0.3617497685   -0.1306572806
      8  H         6.5253010484   -1.0192800591   -0.9770604271
      9  H         5.3089375914    1.3169670486    0.6762711306
     10  H         3.9700810202   -1.0821289319   -0.8195958155
     11  H         2.8320739527    1.2706213406    0.8494603787
     12  H         1.4730061496   -1.0934066512   -0.6739399091
     13  C        -1.0671292406   -0.0753025168    0.1333049976
     14  H         0.4133176199    1.3075222818    0.9458718675
     15  C        -1.4631041003   -1.3952298983    0.1203080312
     16  C        -2.9029954245   -1.8262839747   -0.1788872121
     17  C        -3.9475997830   -0.6951767653   -0.0405224986
     18  H        -3.1697316377   -2.6740833407    0.4812013828
     19  H        -2.9391729283   -2.2384917587   -1.2114219214
     20  C        -3.4155120680    0.5892781138   -0.7096147129
     21  H        -4.1541083975   -0.5087946584    1.0296325249
     22  H        -4.9056226830   -1.0033638296   -0.4971433594
     23  C        -2.0847244201    1.1030068938   -0.0666759645
     24  H        -4.1683435121    1.3983954326   -0.6644059106
     25  H        -3.2349413924    0.3834411467   -1.7831066320
     26  C        -0.5315579100   -2.5698115799    0.4026193930
     27  H         0.3692934925   -2.2706417969    0.9573582628
     28  H        -0.1977097046   -3.0649887849   -0.5314553113
     29  H        -1.0617641473   -3.3419680772    0.9894369551
     30  C        -2.3893746045    1.7781616945    1.3151915146
     31  H        -2.8589357826    1.0700698686    2.0171918846
     32  H        -3.0726552112    2.6357872643    1.1769778699
     33  H        -1.4696992330    2.1595878207    1.7910563435
     34  C        -1.4937041114    2.1881648241   -1.0288245510
     35  H        -1.2175075443    1.7444632489   -2.0006646346
     36  H        -0.5966146250    2.6727108011   -0.6106323816
     37  H        -2.2478402308    2.9748385643   -1.2104382198
   Point Group: c1    Number of degrees of freedom:   105


   Energy is   -584.330594161

 Hessian Updated using BFGS Update

104 Hessian modes will be used to form the next step
  Hessian Eigenvalues:
     0.001248    0.002131    0.002835    0.003453    0.005666    0.010154
     0.010718    0.011926    0.012191    0.016304    0.018692    0.020785
     0.021304    0.021450    0.021553    0.025396    0.030185    0.030424
     0.031008    0.031021    0.031165    0.033398    0.045750    0.047102
     0.050153    0.053606    0.053941    0.054092    0.054576    0.055189
     0.060043    0.061886    0.065481    0.069472    0.073971    0.077132
     0.078394    0.082691    0.095372    0.097217    0.120235    0.143143
     0.148359    0.154204    0.159126    0.159355    0.159862    0.159975
     0.159991    0.159999    0.160000    0.160049    0.160082    0.160182
     0.160719    0.162130    0.165105    0.166865    0.182273    0.188292
     0.211175    0.217153    0.220057    0.220666    0.228184    0.252962
     0.264176    0.276670    0.278038    0.288385    0.293462    0.297565
     0.303459    0.308035    0.315386    0.321163    0.323359    0.323578
     0.323805    0.324013    0.324213    0.324520    0.324674    0.325341
     0.326012    0.327168    0.327484    0.327641    0.330268    0.336059
     0.343757    0.347997    0.350777    0.351357    0.352601    0.353107
     0.354641    0.355476    0.361357    0.402256    0.558018    0.575336
     0.602695    0.630848

 Minimum Search - Taking Simple RFO Step
 Searching for Lamda that Minimizes Along All modes
 Value Taken    Lamda =   0.00000000
 Step Taken.  Stepsize is  0.007235

                             Maximum     Tolerance    Cnvgd?
         Gradient           0.000037      0.000300     YES
         Displacement       0.002371      0.001200      NO
         Energy change     -0.000001      0.000001     YES

 Final energy is   -584.330594160901     


 ******************************
 **  OPTIMIZATION CONVERGED  **
 ******************************

                       Coordinates (Angstroms)
     ATOM                X               Y               Z
      1  C         6.4822691278   -0.1104558268   -0.3682922308
      2  C         5.2993844131    0.4022281151    0.0681990280
      3  C         3.9915622224   -0.1689957447   -0.2094301869
      4  C         2.8042898844    0.3581525812    0.2373716299
      5  C         1.4954857812   -0.1967332974   -0.0455444698
      6  C         0.3195454320    0.3654297444    0.3881718426
      7  H         7.4379904235    0.3617497685   -0.1306572806
      8  H         6.5253010484   -1.0192800591   -0.9770604271
      9  H         5.3089375914    1.3169670486    0.6762711306
     10  H         3.9700810202   -1.0821289319   -0.8195958155
     11  H         2.8320739527    1.2706213406    0.8494603787
     12  H         1.4730061496   -1.0934066512   -0.6739399091
     13  C        -1.0671292406   -0.0753025168    0.1333049976
     14  H         0.4133176199    1.3075222818    0.9458718675
     15  C        -1.4631041003   -1.3952298983    0.1203080312
     16  C        -2.9029954245   -1.8262839747   -0.1788872121
     17  C        -3.9475997830   -0.6951767653   -0.0405224986
     18  H        -3.1697316377   -2.6740833407    0.4812013828
     19  H        -2.9391729283   -2.2384917587   -1.2114219214
     20  C        -3.4155120680    0.5892781138   -0.7096147129
     21  H        -4.1541083975   -0.5087946584    1.0296325249
     22  H        -4.9056226830   -1.0033638296   -0.4971433594
     23  C        -2.0847244201    1.1030068938   -0.0666759645
     24  H        -4.1683435121    1.3983954326   -0.6644059106
     25  H        -3.2349413924    0.3834411467   -1.7831066320
     26  C        -0.5315579100   -2.5698115799    0.4026193930
     27  H         0.3692934925   -2.2706417969    0.9573582628
     28  H        -0.1977097046   -3.0649887849   -0.5314553113
     29  H        -1.0617641473   -3.3419680772    0.9894369551
     30  C        -2.3893746045    1.7781616945    1.3151915146
     31  H        -2.8589357826    1.0700698686    2.0171918846
     32  H        -3.0726552112    2.6357872643    1.1769778699
     33  H        -1.4696992330    2.1595878207    1.7910563435
     34  C        -1.4937041114    2.1881648241   -1.0288245510
     35  H        -1.2175075443    1.7444632489   -2.0006646346
     36  H        -0.5966146250    2.6727108011   -0.6106323816
     37  H        -2.2478402308    2.9748385643   -1.2104382198

Z-matrix Print:
$molecule
0 1
C 
C  1 1.378105
C  1 1.477183 2 123.856828
H  3 1.098800 1 115.055235 2 -144.777794 0
C  3 1.373671 1 128.831232 2 39.620637 0
H  5 1.095175 3 119.911282 1 0.328173 0
C  5 1.449451 3 123.689633 1 177.889884 0
H  7 1.099101 5 116.701711 3 1.073665 0
C  7 1.373730 5 124.751444 3 -178.505564 0
H  9 1.098442 7 118.866200 5 -0.568865 0
C  9 1.453882 7 124.372223 5 179.350058 0
H  11 1.098449 9 116.149688 7 -0.119332 0
C  11 1.361097 9 124.926751 7 179.987438 0
H  13 1.092177 11 121.860744 9 179.905919 0
H  13 1.094720 11 121.681919 9 -0.089150 0
C  2 1.525490 1 124.073714 3 1.664191 0
H  16 1.099441 2 112.594798 1 20.550910 0
H  16 1.105305 2 110.073189 1 141.590210 0
H  16 1.108671 2 111.830628 1 -100.556382 0
C  2 1.532518 1 122.765711 3 -178.553377 0
H  20 1.107081 2 108.987748 1 -141.350255 0
H  20 1.112363 2 108.421704 1 104.666681 0
C  20 1.545881 2 114.306254 1 -17.656012 0
H  23 1.105120 20 110.167142 2 166.457063 0
H  23 1.105720 20 109.643372 2 -76.576420 0
C  23 1.542928 20 109.710787 2 44.462896 0
H  26 1.106106 23 110.886693 20 177.289612 0
H  26 1.107863 23 108.767808 20 60.322507 0
C  26 1.564699 23 112.857291 20 -60.382561 0
C  29 1.566079 26 107.219126 23 167.233258 0
H  30 1.102016 29 112.255585 26 174.900762 0
H  30 1.103462 29 110.911500 26 -64.317983 0
H  30 1.104790 29 109.680892 26 55.143330 0
C  29 1.567866 26 109.772028 23 -75.157447 0
H  34 1.102128 29 111.562083 26 60.128475 0
H  34 1.103511 29 111.529186 26 -179.505795 0
H  34 1.105214 29 110.124506 26 -60.223114 0
$end

 
 --------------------------------------------------------------
 
                    Orbital Energies (a.u.)
 --------------------------------------------------------------
 
 Alpha MOs
 -- Occupied --
 -9.933  -9.924  -9.922  -9.921  -9.919  -9.919  -9.918  -9.918
 -9.916  -9.912  -9.910  -9.909  -9.907  -9.904  -9.901  -0.755
 -0.725  -0.697  -0.695  -0.668  -0.635  -0.603  -0.601  -0.594
 -0.549  -0.517  -0.500  -0.488  -0.479  -0.435  -0.415  -0.405
 -0.396  -0.385  -0.379  -0.367  -0.364  -0.352  -0.344  -0.343
 -0.339  -0.332  -0.324  -0.318  -0.309  -0.299  -0.296  -0.292
 -0.290  -0.285  -0.269  -0.258  -0.248  -0.240  -0.199  -0.157
 -- Virtual --
 -0.066  -0.003   0.038   0.060   0.069   0.073   0.089   0.096
  0.100   0.103   0.107   0.115   0.126   0.133   0.136   0.140
  0.148   0.149   0.161   0.163   0.167   0.168   0.177   0.181
  0.188   0.193   0.195   0.205   0.216   0.217   0.243   0.246
  0.251   0.258   0.296   0.326   0.349   0.360   0.370   0.378
  0.430   0.480   0.486   0.494   0.498   0.502   0.509   0.518
  0.528   0.540   0.544   0.550   0.554   0.563   0.574   0.579
  0.602   0.611   0.611   0.616   0.624   0.632   0.636   0.650
  0.661   0.663   0.683   0.706   0.710   0.724   0.733   0.764
  0.772   0.776   0.781   0.794   0.799   0.810   0.821   0.837
  0.849   0.856   0.858   0.871   0.874   0.885   0.900   0.904
  0.911   0.912   0.923   0.931   0.934   0.941   0.949   0.957
  0.964   0.982   0.984   0.995   1.023   1.044   1.059   1.078
  1.098   1.127   1.142   1.170   1.176   1.200   1.231   1.272
  1.286   1.292   1.313   1.366   1.434   1.442   1.522   1.558
  1.628   1.731   1.796
 --------------------------------------------------------------
 
          Ground-State Mulliken Net Atomic Charges

     Atom                 Charge (a.u.)
  ----------------------------------------
      1 C                    -0.284919
      2 C                    -0.037495
      3 C                    -0.093533
      4 C                    -0.095263
      5 C                    -0.069831
      6 C                    -0.164760
      7 H                     0.106227
      8 H                     0.105996
      9 H                     0.092092
     10 H                     0.089026
     11 H                     0.089618
     12 H                     0.099281
     13 C                     0.092064
     14 H                     0.096193
     15 C                     0.093611
     16 C                    -0.274651
     17 C                    -0.217397
     18 H                     0.110874
     19 H                     0.122608
     20 C                    -0.208002
     21 H                     0.114991
     22 H                     0.101508
     23 C                     0.010808
     24 H                     0.098061
     25 H                     0.105905
     26 C                    -0.441166
     27 H                     0.142483
     28 H                     0.130438
     29 H                     0.117815
     30 C                    -0.368814
     31 H                     0.122055
     32 H                     0.113825
     33 H                     0.117981
     34 C                    -0.360899
     35 H                     0.119175
     36 H                     0.114074
     37 H                     0.110021
  ----------------------------------------
  Sum of atomic charges =    -0.000000

 -----------------------------------------------------------------
                    Cartesian Multipole Moments
 -----------------------------------------------------------------
    Charge (ESU x 10^10)
                -0.0000
    Dipole Moment (Debye)
         X      -1.0412      Y      -0.2013      Z      -0.0382
       Tot       1.0611
    Quadrupole Moments (Debye-Ang)
        XX     -92.8606     XY       0.8833     YY     -91.0910
        XZ       0.2794     YZ       3.2321     ZZ     -95.8595
    Octopole Moments (Debye-Ang^2)
       XXX      -1.8087    XXY       2.0935    XYY      -0.6914
       YYY      -2.4434    XXZ      -1.6422    XYZ      11.4069
       YYZ       1.0946    XZZ      -6.6902    YZZ      -1.3260
       ZZZ      -0.9737
    Hexadecapole Moments (Debye-Ang^3)
      XXXX   -5730.6303   XXXY      24.4147   XXYY   -1152.8621
      XYYY      -1.3147   YYYY   -1163.6143   XXXZ      19.0383
      XXYZ      57.7606   XYYZ       8.8090   YYYZ      13.8190
      XXZZ   -1072.6607   XYZZ      -1.4928   YYZZ    -252.3457
      XZZZ      28.3372   YZZZ      12.5349   ZZZZ    -351.1783
 -----------------------------------------------------------------
Archival summary:
1\1\cub-0-24.local\OPT\ProcedureUnspecified\6-31G\1522\c295_lal\WedOct3100:26:222018WedOct3100:26:222018\0\\#,OPT,ProcedureUnspecified,6-31G,\\0,1\C\C,1,1.3781\C,1,1.47718,2,123.857\H,3,1.0988,1,115.055,2,-144.778,0\C,3,1.37367,1,128.831,2,39.6206,0\H,5,1.09518,3,119.911,1,0.328173,0\C,5,1.44945,3,123.69,1,177.89,0\H,7,1.0991,5,116.702,3,1.07366,0\C,7,1.37373,5,124.751,3,-178.506,0\H,9,1.09844,7,118.866,5,-0.568865,0\C,9,1.45388,7,124.372,5,179.35,0\H,11,1.09845,9,116.15,7,-0.119332,0\C,11,1.3611,9,124.927,7,179.987,0\H,13,1.09218,11,121.861,9,179.906,0\H,13,1.09472,11,121.682,9,-0.08915,0\C,2,1.52549,1,124.074,3,1.66419,0\H,16,1.09944,2,112.595,1,20.5509,0\H,16,1.10531,2,110.073,1,141.59,0\H,16,1.10867,2,111.831,1,-100.556,0\C,2,1.53252,1,122.766,3,-178.553,0\H,20,1.10708,2,108.988,1,-141.35,0\H,20,1.11236,2,108.422,1,104.667,0\C,20,1.54588,2,114.306,1,-17.656,0\H,23,1.10512,20,110.167,2,166.457,0\H,23,1.10572,20,109.643,2,-76.5764,0\C,23,1.54293,20,109.711,2,44.4629,0\H,26,1.10611,23,110.887,20,177.29,0\H,26,1.10786,23,108.768,20,60.3225,0\C,26,1.5647,23,112.857,20,-60.3826,0\C,29,1.56608,26,107.219,23,167.233,0\H,30,1.10202,29,112.256,26,174.901,0\H,30,1.10346,29,110.912,26,-64.318,0\H,30,1.10479,29,109.681,26,55.1433,0\C,29,1.56787,26,109.772,23,-75.1574,0\H,34,1.10213,29,111.562,26,60.1285,0\H,34,1.10351,29,111.529,26,-179.506,0\H,34,1.10521,29,110.125,26,-60.2231,0\\\@

 Total job time:  406.17s(wall), 811.19s(cpu) 
 Wed Oct 31 00:26:22 2018

        *************************************************************
        *                                                           *
        *  Thank you very much for using Q-Chem.  Have a nice day.  *
        *                                                           *
        *************************************************************


