
Running Job 1 of 1 car_2_sys_2_opt_vdz_gga.in
qchem car_2_sys_2_opt_vdz_gga.in_10923.0 /scr/c295_lal/137165/qchem10923/ 1
/usr/software/qchem_511/exe/qcprog.exe_s car_2_sys_2_opt_vdz_gga.in_10923.0 /scr/c295_lal/137165/qchem10923/
Check license passed

                  Welcome to Q-Chem
     A Quantum Leap Into The Future Of Chemistry


 Q-Chem 5.1, Q-Chem, Inc., Pleasanton, CA (2018)

 Yihan Shao,  Zhengting Gan,  E. Epifanovsky,  A. T. B. Gilbert,  M. Wormit,  
 J. Kussmann,  A. W. Lange,  A. Behn,  Jia Deng,  Xintian Feng,  D. Ghosh,  
 M. Goldey,  P. R. Horn,  L. D. Jacobson,  I. Kaliman,  T. Kus,  A. Landau,  
 Jie Liu,  E. I. Proynov,  R. M. Richard,  R. P. Steele,  E. J. Sundstrom,  
 H. L. Woodcock III,  P. M. Zimmerman,  D. Zuev,  B. Albrecht,  E. Alguire,  
 S. A. Baeppler,  D. Barton,  Z. Benda,  Y. A. Bernard,  E. J. Berquist,  
 K. B. Bravaya,  H. Burton,  D. Casanova,  Chun-Min Chang,  Yunqing Chen,  
 A. Chien,  K. D. Closser,  M. P. Coons,  S. Coriani,  S. Dasgupta,  
 A. L. Dempwolff,  M. Diedenhofen,  Hainam Do,  R. G. Edgar,  Po-Tung Fang,  
 S. Faraji,  S. Fatehi,  Qingguo Feng,  K. D. Fenk,  J. Fosso-Tande,  
 Qinghui Ge,  A. Ghysels,  G. Gidofalvi,  J. Gomes,  J. Gonthier,  A. Gunina,  
 D. Hait,  M. W. D. Hanson-Heine,  P. H. P. Harbach,  A. W. Hauser,  
 J. E. Herr,  E. G. Hohenstein,  Z. C. Holden,  Kerwin Hui,  B. C. Huynh,  
 T.-C. Jagau,  Hyunjun Ji,  B. Kaduk,  K. Khistyaev,  Jaehoon Kim,  
 P. Klunzinger,  K. Koh,  D. Kosenkov,  L. Koulias,  T. Kowalczyk,  
 C. M. Krauter,  A. Kunitsa,  Ka Un Lao,  A. Laurent,  K. V. Lawler,  
 Joonho Lee,  D. Lefrancois,  S. Lehtola,  D. S. Levine,  Yi-Pei Li,  
 You-Sheng Lin,  Fenglai Liu,  E. Livshits,  A. Luenser,  P. Manohar,  
 E. Mansoor,  S. F. Manzer,  Shan-Ping Mao,  Yuezhi Mao,  N. Mardirossian,  
 A. V. Marenich,  T. Markovich,  L. A. Martinez-Martinez,  S. A. Maurer,  
 N. J. Mayhall,  S. C. McKenzie,  J.-M. Mewes,  A. F. Morrison,  
 J. W. Mullinax,  K. Nanda,  T. S. Nguyen-Beck,  R. Olivares-Amaya,  
 J. A. Parkhill,  T. M. Perrine,  F. Plasser,  P. Pokhilko,  S. Prager,  
 A. Prociuk,  E. Ramos,  D. R. Rehn,  F. Rob,  M. Schneider,  N. Sergueev,  
 S. M. Sharada,  S. Sharma,  D. W. Small,  T. Stauch,  T. Stein,  
 Yu-Chuan Su,  A. J. W. Thom,  A. Tkatchenko,  T. Tsuchimochi,  N. M. Tubman,  
 L. Vogt,  M. L. Vidal,  O. Vydrov,  M. A. Watson,  J. Wenzel,  
 M. de Wergifosse,  T. A. Wesolowski,  A. White,  J. Witte,  A. Yamada,  
 Jun Yang,  K. Yao,  S. Yeganeh,  S. R. Yost,  Zhi-Qiang You,  A. Zech,  
 Igor Ying Zhang,  Xing Zhang,  Yan Zhao,  Ying Zhu,  B. R. Brooks,  
 G. K. L. Chan,  C. J. Cramer,  M. S. Gordon,  W. J. Hehre,  A. Klamt,  
 M. W. Schmidt,  C. D. Sherrill,  D. G. Truhlar,  A. Aspuru-Guzik,  R. Baer,  
 A. T. Bell,  N. A. Besley,  Jeng-Da Chai,  A. E. DePrince, III,  
 R. A. DiStasio Jr.,  A. Dreuw,  B. D. Dunietz,  T. R. Furlani,  
 Chao-Ping Hsu,  Yousung Jung,  Jing Kong,  D. S. Lambrecht,  WanZhen Liang,  
 C. Ochsenfeld,  V. A. Rassolov,  L. V. Slipchenko,  J. E. Subotnik,  
 T. Van Voorhis,  J. M. Herbert,  A. I. Krylov,  P. M. W. Gill,  M. Head-Gordon

 Contributors to earlier versions of Q-Chem not listed above: 
 R. D. Adamson,  B. Austin,  J. Baker,  G. J. O. Beran,  K. Brandhorst,  
 S. T. Brown,  E. F. C. Byrd,  A. K. Chakraborty,  C.-L. Cheng,  
 Siu Hung Chien,  D. M. Chipman,  D. L. Crittenden,  H. Dachsel,  
 R. J. Doerksen,  A. D. Dutoi,  L. Fusti-Molnar,  W. A. Goddard III,  
 A. Golubeva-Zadorozhnaya,  S. R. Gwaltney,  G. Hawkins,  A. Heyden,  
 S. Hirata,  G. Kedziora,  F. J. Keil,  C. Kelley,  Jihan Kim,  R. A. King,  
 R. Z. Khaliullin,  P. P. Korambath,  W. Kurlancheek,  A. M. Lee,  M. S. Lee,  
 S. V. Levchenko,  Ching Yeh Lin,  D. Liotard,  R. C. Lochan,  I. Lotan,  
 P. E. Maslen,  N. Nair,  D. P. O'Neill,  D. Neuhauser,  E. Neuscamman,  
 C. M. Oana,  R. Olson,  B. Peters,  R. Peverati,  P. A. Pieniazek,  
 Y. M. Rhee,  J. Ritchie,  M. A. Rohrdanz,  E. Rosta,  N. J. Russ,  
 H. F. Schaefer III,  N. E. Schultz,  N. Shenvi,  A. C. Simmonett,  A. Sodt,  
 D. Stuck,  K. S. Thanthiriwatte,  V. Vanovschi,  Tao Wang,  A. Warshel,  
 C. F. Williams,  Q. Wu,  X. Xu,  W. Zhang

 Please cite Q-Chem as follows:
 Y. Shao et al., Mol. Phys. 113, 184-215 (2015)
 DOI: 10.1080/00268976.2014.952696

 Q-Chem 5.1.1 for Intel X86 EM64T Linux

 Parts of Q-Chem use Armadillo 8.300.2 (Tropical Shenanigans).
 http://arma.sourceforge.net/

 Q-Chem begins on Wed Oct 31 17:47:06 2018  

Host: cub-0-8.local
0

     Scratch files written to /scr/c295_lal/137165/qchem10923//
 Aug318 |scratch|qcdevops|jenkins|workspace|build_RNUM -1
Processing $rem in /usr/software/qchem_511/config/preferences.
 MEM_TOTAL  2000 
Input Ideriv = 2
Curr. Ideriv = -1
Max.  Ideriv = 2

Checking the input file for inconsistencies... 	...done.

--------------------------------------------------------------
User input:
--------------------------------------------------------------
$molecule
2 5
C          4.08139       -0.25332       -0.08041
C          2.99127        0.45855        0.38057
C          1.63492       -0.00421        0.23636
C          0.46128        0.62576        0.62756
C         -0.81050       -0.02358        0.31986
C         -2.06392        0.49000        0.54601
H          3.16067        1.42443        0.86558
H          1.52539       -0.97547       -0.26541
H         -0.72882       -0.99256       -0.18541
C         -3.35874       -0.12119        0.16789
H         -2.13132        1.49867        0.97099
C         -3.66678       -1.44742        0.36969
C         -4.99400       -2.07085       -0.07476
C         -6.10603       -1.04630       -0.40333
H         -5.34287       -2.77330        0.70718
H         -4.80052       -2.70483       -0.96812
C         -5.51520        0.12358       -1.21830
H         -6.55536       -0.66877        0.53398
H         -6.92104       -1.53807       -0.96523
C         -4.38611        0.88837       -0.45443
H         -6.30439        0.84336       -1.50566
H         -5.09278       -0.27865       -2.16049
C         -2.73227       -2.44487        1.04708
H         -1.93852       -1.95386        1.62772
H         -2.24167       -3.11253        0.31047
H         -3.30500       -3.10310        1.72702
C         -5.01051        1.77350        0.67902
H         -5.58593        1.16401        1.39452
H         -5.68546        2.53158        0.24205
H         -4.23055        2.30968        1.24671
C         -3.67999        1.82988       -1.48704
H         -3.17682        1.24385       -2.27511
H         -2.92448        2.47373       -1.00879
H         -4.42853        2.48509       -1.96846
C          5.47892        0.14304       -0.00367
C          6.43863       -0.70853       -0.52884
C          7.87697       -0.52303       -0.56881
C          8.74702       -1.42547       -1.10523
H          8.28857        0.39820       -0.14149
H          6.07812       -1.64553       -0.97427
H          9.82494       -1.24993       -1.11654
H          8.40081       -2.36505       -1.54764
H          3.88753       -1.22010       -0.56427
C          0.44026        1.97326        1.33893
H          1.44875        2.34729        1.56257
H         -0.11225        1.90605        2.29355
H         -0.07159        2.73856        0.72605
C          5.81948        1.48125        0.64506
H          6.89967        1.67973        0.66075
H          5.45826        1.51808        1.68900
H          5.33394        2.31541        0.10633
Fe        -1.31457        1.70478       -0.16120
O          1.88883        1.77148       -0.16120
O          0.65343        1.74188       -0.16120
$end

$rem
BASIS = VDZ
METHOD  = BLYP
JOBTYPE = OPT
MAX_SCF_CYCLES = 500
SCF_ALGORITHM = DIIS_GDM
$end
--------------------------------------------------------------
 ----------------------------------------------------------------
             Standard Nuclear Orientation (Angstroms)
    I     Atom           X                Y                Z
 ----------------------------------------------------------------
    1      C       4.1646410638    -0.5927293640    -0.0126416572
    2      C       3.0648445828     0.1282232595     0.4096119238
    3      C       1.7139842318    -0.3541845732     0.2788921497
    4      C       0.5318957771     0.2809670920     0.6346726127
    5      C      -0.7315878645    -0.3943488224     0.3495347566
    6      C      -1.9913165331     0.1162871505     0.5452501623
    7      H       3.2218531126     1.1166602168     0.8514217669
    8      H       1.6169954548    -1.3481502454    -0.1790831346
    9      H      -0.6373805030    -1.3842727022    -0.1109729210
   10      C      -3.2777876305    -0.5243289871     0.1879129789
   11      H      -2.0711493933     1.1423789269     0.9238374178
   12      C      -3.5740394411    -1.8431309230     0.4477094626
   13      C      -4.8923886918    -2.4992929267     0.0244833128
   14      C      -6.0123952017    -1.5018446162    -0.3562448761
   15      H      -5.2390722568    -3.1692125781     0.8354053864
   16      H      -4.6873289197    -3.1709643165    -0.8382247922
   17      C      -5.4281448555    -0.3640529745    -1.2199329663
   18      H      -6.4710422555    -1.0869376681     0.5605274459
   19      H      -6.8191492723    -2.0266384391    -0.8998899405
   20      C      -4.3112221073     0.4457404733    -0.4851108820
   21      H      -6.2225973063     0.3340563037    -1.5439215668
   22      H      -4.9961347800    -0.8041242463    -2.1406143421
   23      C      -2.6339093778    -2.7995517029     1.1746808586
   24      H      -1.8485194351    -2.2748851149     1.7369621954
   25      H      -2.1323644698    -3.4948066303     0.4717400227
   26      H      -3.2042561725    -3.4321519460     1.8804614588
   27      C      -4.9510796466     1.3747958506     0.6036856163
   28      H      -5.5248078229     0.7924611498     1.3427720541
   29      H      -5.6307726994     2.1055612020     0.1291490795
   30      H      -4.1798429577     1.9438611220     1.1509124583
   31      C      -3.6081414968     1.3467439324    -1.5552512318
   32      H      -3.0945163872     0.7308358649    -2.3132169525
   33      H      -2.8618681401     2.0190821605    -1.1023730702
   34      H      -4.3601445759     1.9720036289    -2.0699542268
   35      C       5.5577355207    -0.1792812518     0.0539081041
   36      C       6.5288853157    -1.0439921404    -0.4268844007
   37      C       7.9655550734    -0.8460350302    -0.4671683467
   38      C       8.8476166553    -1.7629705211    -0.9574009891
   39      H       8.3655325209     0.0976310779    -0.0796196746
   40      H       6.1802580625    -2.0037150367    -0.8315266447
   41      H       9.9238149729    -1.5772926203    -0.9706158482
   42      H       8.5132955101    -2.7249906229    -1.3588299919
   43      H       3.9831760294    -1.5822593520    -0.4533985196
   44      C       0.4933960549     1.6589166068     1.2843019482
   45      H       1.4968092619     2.0527767985     1.4964374141
   46      H      -0.0641743307     1.6293030232     2.2378857827
   47      H      -0.0222179933     2.3905956100     0.6346217218
   48      C       5.8812604762     1.1901963157     0.6433998562
   49      H       6.9593412816     1.4000309245     0.6561331416
   50      H       5.5134103836     1.2704651676     1.6825775512
   51      H       5.3908335062     1.9942723102     0.0648281733
   52      Fe     -1.2496458866     1.3053871744    -0.2119338578
   53      O       1.9528893464     1.4042186176    -0.1970719063
   54      O       0.7178608033     1.3622311840    -0.2026282811
 ----------------------------------------------------------------
 Molecular Point Group                 C1    NOp =  1
 Largest Abelian Subgroup              C1    NOp =  1
 Nuclear Repulsion Energy =  2527.8073780657 hartrees
 There are      100 alpha and       96 beta electrons
 Requested basis set is VDZ
 There are 184 shells and 288 basis functions

 Total QAlloc Memory Limit   2000 MB
 Mega-Array Size       188 MB
 MEM_STATIC part       192 MB
 A cutoff of  1.0D-12 yielded  11154 shell pairs
 There are     28132 function pairs (     28578 Cartesian)
 
 -------------------------------------------------------
 OpenMP Integral Computing Module                       
 Release: version 1.0, May 2013, Q-Chem Inc. Pittsburgh 
 -------------------------------------------------------
 Integral Job Info:
 Integral job number is                      11
 Integral operator is                         1
 short-range coefficients                     0
 long-range coefficients              100000000
 Omega coefficients                           0
 if combine SR and LR in K                    0
 Integral screening is                        0
 Integral computing path is                   2
 max size of driver memory is            800000
 size of driver memory is                593474
 size of scratch memory is             29634545
 max col of scratch BK array               1296
 max len of scratch array in speh3          155
 max len of scratch index in speh4           18
 max int batch size is                      520
 min int batch size is                       52
 fixed nKL is                                45
 max L of basis functions is                  2
 order of int derivative is                   0
 number of shells is                        184
 number of basis is                         290
 number of cartesian basis is               290
 number of contracted shell pairs         11154
 number of primitive shell pairs          31562
 maxK2 (contraction) of shell pair           36
 max number of K2 of shell pair               1
 max number of CS2 of shell pair           2677
 max number of PS2 of shell pair           6445
 mem total for path MDJ                  612530
 -------------------------------------------------------
 Smallest overlap matrix eigenvalue = 6.63E-04

 Scale SEOQF with 1.000000e-02/1.000000e-01/1.000000e-01

 Standard Electronic Orientation quadrupole field applied
 Nucleus-field energy     =     0.0000000289 hartrees
 Guess from superposition of atomic densities
 Warning:  Energy on first SCF cycle will be non-variational
 SAD guess density has 198.000000 electrons

 -----------------------------------------------------------------------
  General SCF calculation program by
  Eric Jon Sundstrom, Paul Horn, Yuezhi Mao, Dmitri Zuev, Alec White,
  David Stuck, Shaama M.S., Shane Yost, Joonho Lee, David Small,
  Daniel Levine, Susi Lehtola, Hugh Burton, Evgeny Epifanovsky
 -----------------------------------------------------------------------
 Exchange:  B88      Correlation:  LYP
 Using SG-1 standard quadrature grid
 using 12 threads for integral computing
 -------------------------------------------------------
 OpenMP Integral computing Module                
 Release: version 1.0, May 2013, Q-Chem Inc. Pittsburgh 
 -------------------------------------------------------
 -------------------------------------------------------
 OpenMP BLAS3 based DFT computing Module                
 Release: version 1.0, May 2013, Q-Chem Inc. Pittsburgh 
 -------------------------------------------------------
 A unrestricted SCF calculation will be
 performed using DIIS, GDM
 SCF converges when RMS gradient is below 1.0e-08
 ---------------------------------------
  Cycle       Energy         DIIS error
 ---------------------------------------
    1   -2236.1233484062      3.31e-02  
    2   -2228.5294940488      4.33e-03  Done DIIS. Switching to GDM
 ---------------------------------------
  Cycle       Energy        RMS Gradient
 ---------------------------------------
    1   -2228.5294940488      3.79e-01   Descent step
    2   -2229.1407643972      1.54e-01   Descent step
    3   -2229.4135855822      1.06e-01   Descent step
    4   -2229.3383459462      5.31e-01  Line search: overstep
    5   -2229.4494232525      2.50e-01   Descent step
    6   -2228.9567830652      6.38e-01  Line search: overstep
    7   -2229.4696930602      6.87e-02   Descent step
    8   -2229.4245441896      5.37e-01  Line search: overstep
    9   -2229.4876339220      2.30e-01   Normal BFGS step
   10   -2229.5014238822      1.40e-01   Normal BFGS step
   11   -2229.5128407129      6.03e-02   Normal BFGS step
   12   -2229.5036434377      1.20e-01  Line search: overstep
   13   -2229.5175054489      5.06e-02   Normal BFGS step
   14   -2229.5181435155      4.86e-02   Normal BFGS step
   15   -2229.5191849648      4.32e-02   Normal BFGS step
   16   -2229.5200174558      2.83e-02   Normal BFGS step
   17   -2229.5204861503      1.01e-02   Normal BFGS step
   18   -2229.5205448115      1.63e-02   Normal BFGS step
   19   -2229.5207997664      6.69e-03   Normal BFGS step
   20   -2229.5208363003      1.25e-02   Normal BFGS step
   21   -2229.5209759733      6.05e-03   Normal BFGS step
   22   -2229.5210520452      8.46e-03   Normal BFGS step
   23   -2229.5212316183      4.11e-03   Normal BFGS step
   24   -2229.5211731622      1.30e-02  Line search: overstep
