
Running Job 1 of 1 car_2_sys_2_opt_vdz_gga.in
qchem car_2_sys_2_opt_vdz_gga.in_7367.0 /scr/c295_lal/137182/qchem7367/ 1
/usr/software/qchem_511/exe/qcprog.exe_s car_2_sys_2_opt_vdz_gga.in_7367.0 /scr/c295_lal/137182/qchem7367/
Check license passed

                  Welcome to Q-Chem
     A Quantum Leap Into The Future Of Chemistry


 Q-Chem 5.1, Q-Chem, Inc., Pleasanton, CA (2018)

 Yihan Shao,  Zhengting Gan,  E. Epifanovsky,  A. T. B. Gilbert,  M. Wormit,  
 J. Kussmann,  A. W. Lange,  A. Behn,  Jia Deng,  Xintian Feng,  D. Ghosh,  
 M. Goldey,  P. R. Horn,  L. D. Jacobson,  I. Kaliman,  T. Kus,  A. Landau,  
 Jie Liu,  E. I. Proynov,  R. M. Richard,  R. P. Steele,  E. J. Sundstrom,  
 H. L. Woodcock III,  P. M. Zimmerman,  D. Zuev,  B. Albrecht,  E. Alguire,  
 S. A. Baeppler,  D. Barton,  Z. Benda,  Y. A. Bernard,  E. J. Berquist,  
 K. B. Bravaya,  H. Burton,  D. Casanova,  Chun-Min Chang,  Yunqing Chen,  
 A. Chien,  K. D. Closser,  M. P. Coons,  S. Coriani,  S. Dasgupta,  
 A. L. Dempwolff,  M. Diedenhofen,  Hainam Do,  R. G. Edgar,  Po-Tung Fang,  
 S. Faraji,  S. Fatehi,  Qingguo Feng,  K. D. Fenk,  J. Fosso-Tande,  
 Qinghui Ge,  A. Ghysels,  G. Gidofalvi,  J. Gomes,  J. Gonthier,  A. Gunina,  
 D. Hait,  M. W. D. Hanson-Heine,  P. H. P. Harbach,  A. W. Hauser,  
 J. E. Herr,  E. G. Hohenstein,  Z. C. Holden,  Kerwin Hui,  B. C. Huynh,  
 T.-C. Jagau,  Hyunjun Ji,  B. Kaduk,  K. Khistyaev,  Jaehoon Kim,  
 P. Klunzinger,  K. Koh,  D. Kosenkov,  L. Koulias,  T. Kowalczyk,  
 C. M. Krauter,  A. Kunitsa,  Ka Un Lao,  A. Laurent,  K. V. Lawler,  
 Joonho Lee,  D. Lefrancois,  S. Lehtola,  D. S. Levine,  Yi-Pei Li,  
 You-Sheng Lin,  Fenglai Liu,  E. Livshits,  A. Luenser,  P. Manohar,  
 E. Mansoor,  S. F. Manzer,  Shan-Ping Mao,  Yuezhi Mao,  N. Mardirossian,  
 A. V. Marenich,  T. Markovich,  L. A. Martinez-Martinez,  S. A. Maurer,  
 N. J. Mayhall,  S. C. McKenzie,  J.-M. Mewes,  A. F. Morrison,  
 J. W. Mullinax,  K. Nanda,  T. S. Nguyen-Beck,  R. Olivares-Amaya,  
 J. A. Parkhill,  T. M. Perrine,  F. Plasser,  P. Pokhilko,  S. Prager,  
 A. Prociuk,  E. Ramos,  D. R. Rehn,  F. Rob,  M. Schneider,  N. Sergueev,  
 S. M. Sharada,  S. Sharma,  D. W. Small,  T. Stauch,  T. Stein,  
 Yu-Chuan Su,  A. J. W. Thom,  A. Tkatchenko,  T. Tsuchimochi,  N. M. Tubman,  
 L. Vogt,  M. L. Vidal,  O. Vydrov,  M. A. Watson,  J. Wenzel,  
 M. de Wergifosse,  T. A. Wesolowski,  A. White,  J. Witte,  A. Yamada,  
 Jun Yang,  K. Yao,  S. Yeganeh,  S. R. Yost,  Zhi-Qiang You,  A. Zech,  
 Igor Ying Zhang,  Xing Zhang,  Yan Zhao,  Ying Zhu,  B. R. Brooks,  
 G. K. L. Chan,  C. J. Cramer,  M. S. Gordon,  W. J. Hehre,  A. Klamt,  
 M. W. Schmidt,  C. D. Sherrill,  D. G. Truhlar,  A. Aspuru-Guzik,  R. Baer,  
 A. T. Bell,  N. A. Besley,  Jeng-Da Chai,  A. E. DePrince, III,  
 R. A. DiStasio Jr.,  A. Dreuw,  B. D. Dunietz,  T. R. Furlani,  
 Chao-Ping Hsu,  Yousung Jung,  Jing Kong,  D. S. Lambrecht,  WanZhen Liang,  
 C. Ochsenfeld,  V. A. Rassolov,  L. V. Slipchenko,  J. E. Subotnik,  
 T. Van Voorhis,  J. M. Herbert,  A. I. Krylov,  P. M. W. Gill,  M. Head-Gordon

 Contributors to earlier versions of Q-Chem not listed above: 
 R. D. Adamson,  B. Austin,  J. Baker,  G. J. O. Beran,  K. Brandhorst,  
 S. T. Brown,  E. F. C. Byrd,  A. K. Chakraborty,  C.-L. Cheng,  
 Siu Hung Chien,  D. M. Chipman,  D. L. Crittenden,  H. Dachsel,  
 R. J. Doerksen,  A. D. Dutoi,  L. Fusti-Molnar,  W. A. Goddard III,  
 A. Golubeva-Zadorozhnaya,  S. R. Gwaltney,  G. Hawkins,  A. Heyden,  
 S. Hirata,  G. Kedziora,  F. J. Keil,  C. Kelley,  Jihan Kim,  R. A. King,  
 R. Z. Khaliullin,  P. P. Korambath,  W. Kurlancheek,  A. M. Lee,  M. S. Lee,  
 S. V. Levchenko,  Ching Yeh Lin,  D. Liotard,  R. C. Lochan,  I. Lotan,  
 P. E. Maslen,  N. Nair,  D. P. O'Neill,  D. Neuhauser,  E. Neuscamman,  
 C. M. Oana,  R. Olson,  B. Peters,  R. Peverati,  P. A. Pieniazek,  
 Y. M. Rhee,  J. Ritchie,  M. A. Rohrdanz,  E. Rosta,  N. J. Russ,  
 H. F. Schaefer III,  N. E. Schultz,  N. Shenvi,  A. C. Simmonett,  A. Sodt,  
 D. Stuck,  K. S. Thanthiriwatte,  V. Vanovschi,  Tao Wang,  A. Warshel,  
 C. F. Williams,  Q. Wu,  X. Xu,  W. Zhang

 Please cite Q-Chem as follows:
 Y. Shao et al., Mol. Phys. 113, 184-215 (2015)
 DOI: 10.1080/00268976.2014.952696

 Q-Chem 5.1.1 for Intel X86 EM64T Linux

 Parts of Q-Chem use Armadillo 8.300.2 (Tropical Shenanigans).
 http://arma.sourceforge.net/

 Q-Chem begins on Wed Oct 31 22:21:36 2018  

Host: cub-0-27.local
0

     Scratch files written to /scr/c295_lal/137182/qchem7367//
 Aug318 |scratch|qcdevops|jenkins|workspace|build_RNUM -1
Processing $rem in /usr/software/qchem_511/config/preferences.
 MEM_TOTAL  2000 
Input Ideriv = 2
Curr. Ideriv = -1
Max.  Ideriv = 2

Checking the input file for inconsistencies... 	...done.

--------------------------------------------------------------
User input:
--------------------------------------------------------------
$molecule
2 5
C          4.08139       -0.25332       -0.08041
C          2.99127        0.45855        0.38057
C          1.63492       -0.00421        0.23636
C          0.46128        0.62576        0.62756
C         -0.81050       -0.02358        0.31986
C         -2.06392        0.49000        0.54601
H          3.16067        1.42443        0.86558
H          1.52539       -0.97547       -0.26541
H         -0.72882       -0.99256       -0.18541
C         -3.35874       -0.12119        0.16789
H         -2.13132        1.49867        0.97099
C         -3.66678       -1.44742        0.36969
C         -4.99400       -2.07085       -0.07476
C         -6.10603       -1.04630       -0.40333
H         -5.34287       -2.77330        0.70718
H         -4.80052       -2.70483       -0.96812
C         -5.51520        0.12358       -1.21830
H         -6.55536       -0.66877        0.53398
H         -6.92104       -1.53807       -0.96523
C         -4.38611        0.88837       -0.45443
H         -6.30439        0.84336       -1.50566
H         -5.09278       -0.27865       -2.16049
C         -2.73227       -2.44487        1.04708
H         -1.93852       -1.95386        1.62772
H         -2.24167       -3.11253        0.31047
H         -3.30500       -3.10310        1.72702
C         -5.01051        1.77350        0.67902
H         -5.58593        1.16401        1.39452
H         -5.68546        2.53158        0.24205
H         -4.23055        2.30968        1.24671
C         -3.67999        1.82988       -1.48704
H         -3.17682        1.24385       -2.27511
H         -2.92448        2.47373       -1.00879
H         -4.42853        2.48509       -1.96846
C          5.47892        0.14304       -0.00367
C          6.43863       -0.70853       -0.52884
C          7.87697       -0.52303       -0.56881
C          8.74702       -1.42547       -1.10523
H          8.28857        0.39820       -0.14149
H          6.07812       -1.64553       -0.97427
H          9.82494       -1.24993       -1.11654
H          8.40081       -2.36505       -1.54764
H          3.88753       -1.22010       -0.56427
C          0.44026        1.97326        1.33893
H          1.44875        2.34729        1.56257
H         -0.11225        1.90605        2.29355
H         -0.07159        2.73856        0.72605
C          5.81948        1.48125        0.64506
H          6.89967        1.67973        0.66075
H          5.45826        1.51808        1.68900
H          5.33394        2.31541        0.10633
Fe        -1.31457        1.70478       -0.16120
O          1.88883        1.77148       -0.16120
O          0.65343        1.74188       -0.16120
$end

$rem
BASIS = VDZ
METHOD  = BLYP
JOBTYPE = OPT
MAX_SCF_CYCLES = 500
SCF_ALGORITHM = DIIS_GDM
GEOM_OPT_MAX_CYCLES = 100
$end
--------------------------------------------------------------
 ----------------------------------------------------------------
             Standard Nuclear Orientation (Angstroms)
    I     Atom           X                Y                Z
 ----------------------------------------------------------------
    1      C       4.1646410638    -0.5927293640    -0.0126416572
    2      C       3.0648445828     0.1282232595     0.4096119238
    3      C       1.7139842318    -0.3541845732     0.2788921497
    4      C       0.5318957771     0.2809670920     0.6346726127
    5      C      -0.7315878645    -0.3943488224     0.3495347566
    6      C      -1.9913165331     0.1162871505     0.5452501623
    7      H       3.2218531126     1.1166602168     0.8514217669
    8      H       1.6169954548    -1.3481502454    -0.1790831346
    9      H      -0.6373805030    -1.3842727022    -0.1109729210
   10      C      -3.2777876305    -0.5243289871     0.1879129789
   11      H      -2.0711493933     1.1423789269     0.9238374178
   12      C      -3.5740394411    -1.8431309230     0.4477094626
   13      C      -4.8923886918    -2.4992929267     0.0244833128
   14      C      -6.0123952017    -1.5018446162    -0.3562448761
   15      H      -5.2390722568    -3.1692125781     0.8354053864
   16      H      -4.6873289197    -3.1709643165    -0.8382247922
   17      C      -5.4281448555    -0.3640529745    -1.2199329663
   18      H      -6.4710422555    -1.0869376681     0.5605274459
   19      H      -6.8191492723    -2.0266384391    -0.8998899405
   20      C      -4.3112221073     0.4457404733    -0.4851108820
   21      H      -6.2225973063     0.3340563037    -1.5439215668
   22      H      -4.9961347800    -0.8041242463    -2.1406143421
   23      C      -2.6339093778    -2.7995517029     1.1746808586
   24      H      -1.8485194351    -2.2748851149     1.7369621954
   25      H      -2.1323644698    -3.4948066303     0.4717400227
   26      H      -3.2042561725    -3.4321519460     1.8804614588
   27      C      -4.9510796466     1.3747958506     0.6036856163
   28      H      -5.5248078229     0.7924611498     1.3427720541
   29      H      -5.6307726994     2.1055612020     0.1291490795
   30      H      -4.1798429577     1.9438611220     1.1509124583
   31      C      -3.6081414968     1.3467439324    -1.5552512318
   32      H      -3.0945163872     0.7308358649    -2.3132169525
   33      H      -2.8618681401     2.0190821605    -1.1023730702
   34      H      -4.3601445759     1.9720036289    -2.0699542268
   35      C       5.5577355207    -0.1792812518     0.0539081041
   36      C       6.5288853157    -1.0439921404    -0.4268844007
   37      C       7.9655550734    -0.8460350302    -0.4671683467
   38      C       8.8476166553    -1.7629705211    -0.9574009891
   39      H       8.3655325209     0.0976310779    -0.0796196746
   40      H       6.1802580625    -2.0037150367    -0.8315266447
   41      H       9.9238149729    -1.5772926203    -0.9706158482
   42      H       8.5132955101    -2.7249906229    -1.3588299919
   43      H       3.9831760294    -1.5822593520    -0.4533985196
   44      C       0.4933960549     1.6589166068     1.2843019482
   45      H       1.4968092619     2.0527767985     1.4964374141
   46      H      -0.0641743307     1.6293030232     2.2378857827
   47      H      -0.0222179933     2.3905956100     0.6346217218
   48      C       5.8812604762     1.1901963157     0.6433998562
   49      H       6.9593412816     1.4000309245     0.6561331416
   50      H       5.5134103836     1.2704651676     1.6825775512
   51      H       5.3908335062     1.9942723102     0.0648281733
   52      Fe     -1.2496458866     1.3053871744    -0.2119338578
   53      O       1.9528893464     1.4042186176    -0.1970719063
   54      O       0.7178608033     1.3622311840    -0.2026282811
 ----------------------------------------------------------------
 Molecular Point Group                 C1    NOp =  1
 Largest Abelian Subgroup              C1    NOp =  1
 Nuclear Repulsion Energy =  2527.8073780657 hartrees
 There are      100 alpha and       96 beta electrons
 Requested basis set is VDZ
 There are 184 shells and 288 basis functions

 Total QAlloc Memory Limit   2000 MB
 Mega-Array Size       188 MB
 MEM_STATIC part       192 MB
 A cutoff of  1.0D-12 yielded  11154 shell pairs
 There are     28132 function pairs (     28578 Cartesian)
 
 -------------------------------------------------------
 OpenMP Integral Computing Module                       
 Release: version 1.0, May 2013, Q-Chem Inc. Pittsburgh 
 -------------------------------------------------------
 Integral Job Info:
 Integral job number is                      11
 Integral operator is                         1
 short-range coefficients                     0
 long-range coefficients              100000000
 Omega coefficients                           0
 if combine SR and LR in K                    0
 Integral screening is                        0
 Integral computing path is                   2
 max size of driver memory is            800000
 size of driver memory is                593474
 size of scratch memory is             29634545
 max col of scratch BK array               1296
 max len of scratch array in speh3          155
 max len of scratch index in speh4           18
 max int batch size is                      520
 min int batch size is                       52
 fixed nKL is                                45
 max L of basis functions is                  2
 order of int derivative is                   0
 number of shells is                        184
 number of basis is                         290
 number of cartesian basis is               290
 number of contracted shell pairs         11154
 number of primitive shell pairs          31562
 maxK2 (contraction) of shell pair           36
 max number of K2 of shell pair               1
 max number of CS2 of shell pair           2677
 max number of PS2 of shell pair           6445
 mem total for path MDJ                  612530
 -------------------------------------------------------
 Smallest overlap matrix eigenvalue = 6.63E-04

 Scale SEOQF with 1.000000e-02/1.000000e-01/1.000000e-01

 Standard Electronic Orientation quadrupole field applied
 Nucleus-field energy     =     0.0000000289 hartrees
 Guess from superposition of atomic densities
 Warning:  Energy on first SCF cycle will be non-variational
 SAD guess density has 198.000000 electrons

 -----------------------------------------------------------------------
  General SCF calculation program by
  Eric Jon Sundstrom, Paul Horn, Yuezhi Mao, Dmitri Zuev, Alec White,
  David Stuck, Shaama M.S., Shane Yost, Joonho Lee, David Small,
  Daniel Levine, Susi Lehtola, Hugh Burton, Evgeny Epifanovsky
 -----------------------------------------------------------------------
 Exchange:  B88      Correlation:  LYP
 Using SG-1 standard quadrature grid
 using 8 threads for integral computing
 -------------------------------------------------------
 OpenMP Integral computing Module                
 Release: version 1.0, May 2013, Q-Chem Inc. Pittsburgh 
 -------------------------------------------------------
 -------------------------------------------------------
 OpenMP BLAS3 based DFT computing Module                
 Release: version 1.0, May 2013, Q-Chem Inc. Pittsburgh 
 -------------------------------------------------------
 A unrestricted SCF calculation will be
 performed using DIIS, GDM
 SCF converges when RMS gradient is below 1.0e-08
 ---------------------------------------
  Cycle       Energy         DIIS error
 ---------------------------------------
    1   -2236.1233484062      3.31e-02  
    2   -2228.5294940488      4.33e-03  Done DIIS. Switching to GDM
 ---------------------------------------
  Cycle       Energy        RMS Gradient
 ---------------------------------------
    1   -2228.5294940488      3.79e-01   Descent step
    2   -2229.1407643972      1.54e-01   Descent step
    3   -2229.4135855822      1.06e-01   Descent step
    4   -2229.3383459462      5.31e-01  Line search: overstep
    5   -2229.4494232525      2.50e-01   Descent step
    6   -2228.9567830652      6.38e-01  Line search: overstep
    7   -2229.4696930602      6.87e-02   Descent step
    8   -2229.4245441896      5.37e-01  Line search: overstep
    9   -2229.4876339220      2.30e-01   Normal BFGS step
   10   -2229.5014238822      1.40e-01   Normal BFGS step
   11   -2229.5128407129      6.03e-02   Normal BFGS step
   12   -2229.5036434377      1.20e-01  Line search: overstep
   13   -2229.5175054489      5.06e-02   Normal BFGS step
   14   -2229.5181435155      4.86e-02   Normal BFGS step
   15   -2229.5191849648      4.32e-02   Normal BFGS step
   16   -2229.5200174558      2.83e-02   Normal BFGS step
   17   -2229.5204861502      1.01e-02   Normal BFGS step
   18   -2229.5205448115      1.63e-02   Normal BFGS step
   19   -2229.5207997664      6.69e-03   Normal BFGS step
   20   -2229.5208363002      1.25e-02   Normal BFGS step
   21   -2229.5209759733      6.05e-03   Normal BFGS step
   22   -2229.5210520452      8.46e-03   Normal BFGS step
   23   -2229.5212316183      4.11e-03   Normal BFGS step
   24   -2229.5211731622      1.30e-02  Line search: overstep
   25   -2229.5213273626      4.43e-03   Normal BFGS step
   26   -2229.5213952157      3.72e-03   Normal BFGS step
   27   -2229.5214272189      1.80e-03   Normal BFGS step
   28   -2229.5214314927      1.64e-03   Normal BFGS step
   29   -2229.5214390826      8.91e-04   Normal BFGS step
   30   -2229.5214379665      1.35e-03  Line search: overstep
   31   -2229.5214428744      6.82e-04   Normal BFGS step
   32   -2229.5214357383      1.77e-03  Line search: overstep
   33   -2229.5214444630      3.88e-04   Normal BFGS step
   34   -2229.5214441127      7.11e-04  Line search: overstep
   35   -2229.5214449659      2.01e-04   Normal BFGS step
   36   -2229.5214448477      4.67e-04  Line search: overstep
   37   -2229.5214450621      2.11e-04   Normal BFGS step
   38   -2229.5214450622      1.53e-04   Normal BFGS step
   39   -2229.5214451512      9.66e-05   Normal BFGS step
   40   -2229.5214450820      2.33e-04  Line search: overstep
   41   -2229.5214451672      3.24e-05   Normal BFGS step
   42   -2229.5214451698      3.04e-05   Normal BFGS step
   43   -2229.5214451763      3.00e-05   Normal BFGS step
   44   -2229.5214451737      4.91e-05   Normal BFGS step
   45   -2229.5214451782      9.96e-06   Normal BFGS step
   46   -2229.5214451775      1.72e-05   Normal BFGS step
   47   -2229.5214451789      1.02e-05   Normal BFGS step
   48   -2229.5214451785      1.71e-05   Normal BFGS step
   49   -2229.5214451789      9.94e-06   Normal BFGS step
   50   -2229.5214451782      2.61e-05   Normal BFGS step
   51   -2229.5214451791      3.25e-06   Normal BFGS step
   52   -2229.5214451788      6.28e-06   Normal BFGS step
   53   -2229.5214451791      6.02e-07   Normal BFGS step
   54   -2229.5214451791      1.36e-06   Normal BFGS step
   55   -2229.5214451791      2.65e-07   Normal BFGS step
   56   -2229.5214451791      3.23e-07   Normal BFGS step
   57   -2229.5214451791      3.39e-07   Normal BFGS step
   58   -2229.5214451791      6.34e-07   Normal BFGS step
   59   -2229.5214451791      1.74e-07   Normal BFGS step
   60   -2229.5214451791      5.63e-07   Normal BFGS step
   61   -2229.5214451791      2.42e-07   Normal BFGS step
   62   -2229.5214451791      3.06e-07   Normal BFGS step
   63   -2229.5214451791      1.47e-07   Normal BFGS step
   64   -2229.5214451791      4.47e-07   Normal BFGS step
   65   -2229.5214451791      1.70e-08   Normal BFGS step
   66   -2229.5214451791      2.97e-08   Normal BFGS step
   67   -2229.5214451791      2.42e-08   Normal BFGS step
   68   -2229.5214451791      9.97e-08   Normal BFGS step
   69   -2229.5214451791      1.12e-08   Normal BFGS step
   70   -2229.5214451791      3.30e-08   Normal BFGS step
   71   -2229.5214451791      4.00e-09  Convergence criterion met
 ---------------------------------------
 SCF time:   CPU 2737.35s  wall 344.00s 
<S^2> =          6.053404038
 SCF   energy in the final basis set =    -2229.5214451791
 Total energy in the final basis set =    -2229.5214451791
 
 --------------------------------------------------------------
 
                    Orbital Energies (a.u.)
 --------------------------------------------------------------
 
 Alpha MOs
 -- Occupied --
******* -29.803 -25.762 -25.759 -25.749 -19.179 -19.077 -10.275
-10.228 -10.222 -10.215 -10.206 -10.204 -10.192 -10.182 -10.178
-10.170 -10.165 -10.163 -10.161 -10.158 -10.148 -10.132 -10.122
-10.118 -10.107 -10.106 -10.099  -3.576  -2.416  -2.401  -2.378
 -1.522  -1.176  -1.052  -1.020  -0.986  -0.966  -0.956  -0.929
 -0.918  -0.898  -0.882  -0.855  -0.842  -0.835  -0.829  -0.825
 -0.812  -0.799  -0.781  -0.761  -0.742  -0.738  -0.722  -0.714
 -0.703  -0.694  -0.677  -0.670  -0.661  -0.656  -0.645  -0.636
 -0.627  -0.622  -0.618  -0.606  -0.600  -0.593  -0.589  -0.583
 -0.582  -0.573  -0.567  -0.559  -0.555  -0.553  -0.548  -0.542
 -0.540  -0.532  -0.523  -0.521  -0.516  -0.510  -0.508  -0.508
 -0.505  -0.495  -0.481  -0.474  -0.468  -0.468  -0.462  -0.459
 -0.454  -0.438  -0.413  -0.410
 -- Virtual --
 -0.390  -0.319  -0.303  -0.277  -0.232  -0.222  -0.201  -0.187
 -0.185  -0.179  -0.168  -0.161  -0.154  -0.146  -0.138  -0.136
 -0.127  -0.123  -0.120  -0.116  -0.111  -0.110  -0.106  -0.096
 -0.088  -0.086  -0.081  -0.080  -0.077  -0.074  -0.070  -0.064
 -0.063  -0.060  -0.056  -0.051  -0.049  -0.041  -0.033  -0.032
 -0.028  -0.024  -0.018  -0.016  -0.012  -0.003   0.001   0.009
  0.025   0.030   0.037   0.049   0.055   0.063   0.082   0.094
  0.097   0.100   0.106   0.126   0.127   0.132   0.144   0.155
  0.168   0.175   0.182   0.185   0.186   0.192   0.199   0.202
  0.205   0.213   0.221   0.230   0.237   0.241   0.243   0.249
  0.251   0.253   0.264   0.273   0.285   0.290   0.299   0.309
  0.312   0.326   0.331   0.348   0.352   0.355   0.357   0.358
  0.363   0.363   0.367   0.373   0.375   0.382   0.388   0.390
  0.395   0.404   0.408   0.412   0.415   0.420   0.422   0.425
  0.432   0.436   0.439   0.443   0.445   0.447   0.449   0.452
  0.455   0.459   0.464   0.465   0.466   0.469   0.478   0.482
  0.485   0.488   0.488   0.498   0.498   0.504   0.512   0.515
  0.518   0.523   0.527   0.532   0.553   0.556   0.573   0.584
  0.595   0.609   0.620   0.625   0.633   0.648   0.656   0.673
  0.681   0.690   0.722   0.739   0.751   0.775   0.782   0.795
  0.813   0.827   0.844   0.848   0.849   0.862   0.871   0.874
  0.888   0.900   0.921   0.932   0.942   0.949   0.986   0.994
  1.004   1.025   1.047   1.052   1.073   1.088   1.104   1.164
  1.177   1.191   1.287   1.610
 
 Beta MOs
 -- Occupied --
******* -29.759 -25.729 -25.724 -25.719 -19.175 -19.072 -10.274
-10.228 -10.221 -10.214 -10.204 -10.203 -10.191 -10.180 -10.177
-10.168 -10.164 -10.161 -10.159 -10.158 -10.148 -10.132 -10.122
-10.118 -10.107 -10.106 -10.099  -3.474  -2.318  -2.296  -2.284
 -1.515  -1.168  -1.047  -1.015  -0.982  -0.963  -0.951  -0.925
 -0.916  -0.893  -0.879  -0.852  -0.839  -0.831  -0.826  -0.820
 -0.809  -0.798  -0.774  -0.756  -0.738  -0.733  -0.718  -0.711
 -0.700  -0.691  -0.672  -0.666  -0.656  -0.650  -0.640  -0.632
 -0.623  -0.619  -0.616  -0.604  -0.596  -0.590  -0.586  -0.580
 -0.579  -0.570  -0.563  -0.555  -0.553  -0.550  -0.546  -0.540
 -0.533  -0.531  -0.522  -0.514  -0.511  -0.507  -0.505  -0.499
 -0.479  -0.472  -0.467  -0.463  -0.457  -0.440  -0.433  -0.417
 -- Virtual --
 -0.406  -0.391  -0.383  -0.376  -0.351  -0.304  -0.291  -0.260
 -0.224  -0.214  -0.197  -0.182  -0.177  -0.176  -0.161  -0.157
 -0.151  -0.144  -0.135  -0.131  -0.126  -0.120  -0.119  -0.114
 -0.111  -0.108  -0.104  -0.095  -0.086  -0.082  -0.079  -0.077
 -0.074  -0.072  -0.068  -0.062  -0.062  -0.056  -0.054  -0.049
 -0.048  -0.038  -0.032  -0.031  -0.027  -0.022  -0.016  -0.015
 -0.011  -0.002   0.003   0.011   0.026   0.032   0.038   0.051
  0.058   0.065   0.086   0.098   0.099   0.103   0.109   0.129
  0.131   0.135   0.146   0.157   0.171   0.177   0.184   0.187
  0.190   0.195   0.201   0.206   0.208   0.215   0.222   0.232
  0.241   0.243   0.250   0.252   0.254   0.257   0.267   0.275
  0.290   0.294   0.300   0.314   0.318   0.329   0.336   0.350
  0.353   0.358   0.359   0.360   0.365   0.365   0.370   0.376
  0.377   0.384   0.391   0.392   0.398   0.406   0.412   0.415
  0.419   0.423   0.424   0.427   0.433   0.439   0.442   0.445
  0.446   0.448   0.450   0.454   0.457   0.460   0.465   0.467
  0.467   0.470   0.479   0.483   0.487   0.489   0.489   0.498
  0.500   0.505   0.513   0.516   0.519   0.524   0.528   0.533
  0.555   0.556   0.575   0.586   0.597   0.612   0.622   0.627
  0.637   0.650   0.660   0.678   0.692   0.697   0.724   0.748
  0.755   0.778   0.787   0.801   0.819   0.830   0.849   0.850
  0.859   0.867   0.876   0.879   0.897   0.907   0.927   0.938
  0.945   0.970   0.996   1.003   1.009   1.035   1.049   1.055
  1.077   1.100   1.118   1.172   1.186   1.209   1.312   1.616
 --------------------------------------------------------------
 
          Ground-State Mulliken Net Atomic Charges

     Atom                 Charge (a.u.)    Spin (a.u.)
  --------------------------------------------------------
      1 C                    -0.083522       0.074134
      2 C                     0.159529       0.131055
      3 C                    -0.071975      -0.011777
      4 C                    -0.013444       0.057733
      5 C                    -0.150121       0.020157
      6 C                    -0.358395       0.149356
      7 H                     0.130036       0.004507
      8 H                     0.100382       0.004788
      9 H                     0.114380       0.029884
     10 C                     0.206979       0.011015
     11 H                    -0.005805       0.005723
     12 C                    -0.117280       0.090827
     13 C                    -0.093956      -0.004007
     14 C                    -0.062317       0.001627
     15 H                     0.104496       0.004250
     16 H                     0.111742       0.007054
     17 C                    -0.056649       0.001553
     18 H                     0.087521       0.000475
     19 H                     0.096822       0.000366
     20 C                    -0.248655      -0.000027
     21 H                     0.088240       0.000191
     22 H                     0.067790       0.000016
     23 C                    -0.160263      -0.005641
     24 H                     0.092610       0.001109
     25 H                     0.119029       0.005015
     26 H                     0.126277       0.004559
     27 C                    -0.122723       0.003141
     28 H                     0.107587      -0.000082
     29 H                     0.108740       0.000428
     30 H                     0.069674      -0.000121
     31 C                    -0.157823       0.027081
     32 H                     0.120116       0.000199
     33 H                     0.017887       0.002493
     34 H                     0.144498       0.006766
     35 C                     0.034463       0.059275
     36 C                    -0.046776       0.186805
     37 C                     0.002913      -0.038800
     38 C                    -0.044430       0.263623
     39 H                     0.100713       0.000834
     40 H                     0.081977      -0.009143
     41 H                     0.147767      -0.013595
     42 H                     0.131904      -0.012720
     43 H                     0.072581      -0.003901
     44 C                     0.032073       0.021299
     45 H                     0.164452       0.003899
     46 H                     0.115778       0.021731
     47 H                     0.107957       0.056687
     48 C                    -0.141669      -0.006560
     49 H                     0.116142       0.000304
     50 H                     0.124235       0.005914
     51 H                     0.125301       0.004743
     52 Fe                    0.859645       2.546271
     53 O                    -0.185014       0.195247
     54 O                    -0.271421       0.094243
  --------------------------------------------------------
  Sum of atomic charges =     2.000000
  Sum of spin   charges =     4.000000

 -----------------------------------------------------------------
                    Cartesian Multipole Moments
 -----------------------------------------------------------------
    Charge (ESU x 10^10)
                 9.6064
    Dipole Moment (Debye)
         X      10.7864      Y      -1.8827      Z      -0.7697
       Tot      10.9764
    Quadrupole Moments (Debye-Ang)
        XX      94.2752     XY     -14.9356     YY    -117.8016
        XZ      -3.7215     YZ       4.3648     ZZ    -144.9622
    Octopole Moments (Debye-Ang^2)
       XXX    1133.2966    XXY    -222.7798    XYY      -3.6985
       YYY       7.4979    XXZ    -129.2676    XYZ      58.5153
       YYZ      -4.9343    XZZ     -14.0728    YZZ      14.0855
       ZZZ     -10.2099
    Hexadecapole Moments (Debye-Ang^3)
      XXXX   -3328.2895   XXXY   -1511.3100   XXYY   -2421.0096
      XYYY     -22.6362   YYYY   -1717.1819   XXXZ    -837.2996
      XXYZ     282.8794   XYYZ     -65.9700   YYYZ      -6.7721
      XXZZ   -2862.8905   XYZZ     -21.0565   YYZZ    -394.9038
      XZZZ      27.3323   YZZZ      -9.2748   ZZZZ    -671.0743
 -----------------------------------------------------------------
 Calculating analytic gradient of the SCF energy
 Gradient of SCF Energy
            1           2           3           4           5           6
    1  -0.0368311  -0.0210429  -0.1045013   0.0618759  -0.0456275   0.1410886
    2   0.0218920   0.0502926   0.1273318   0.0790170   0.0848729   0.1645047
    3   0.0168661  -0.0516099  -0.0330016  -0.0856493  -0.0081075  -0.0729684
            7           8           9          10          11          12
    1  -0.0231612   0.0005649  -0.0015547   0.0022790   0.0573670   0.0004567
    2   0.0148922   0.0085996   0.0026697  -0.0129965  -0.0317948   0.0232553
    3  -0.0216770  -0.0000196   0.0021726  -0.0010366  -0.0930287  -0.0042577
           13          14          15          16          17          18
    1   0.0018599  -0.0046198  -0.0000173  -0.0033513  -0.0019281   0.0030738
    2  -0.0099192  -0.0020532   0.0030785   0.0030299   0.0021365  -0.0010247
    3  -0.0023811   0.0007008  -0.0025960   0.0034473  -0.0012368  -0.0039814
           19          20          21          22          23          24
    1   0.0024636   0.0016042   0.0029581  -0.0014691   0.0023290  -0.0042804
    2   0.0016152  -0.0033069  -0.0028844   0.0019815  -0.0076096  -0.0015296
    3   0.0020470  -0.0029175   0.0009577   0.0050371   0.0017666  -0.0051337
           25          26          27          28          29          30
    1  -0.0007237   0.0014966  -0.0019600   0.0028041   0.0033192  -0.0043270
    2   0.0041319   0.0025111   0.0037069   0.0023343  -0.0030446  -0.0045534
    3   0.0047843  -0.0025743   0.0034859  -0.0035857   0.0019332  -0.0048086
           31          32          33          34          35          36
    1   0.0108996  -0.0011024  -0.0089792  -0.0011284   0.0352512  -0.0304678
    2   0.0230516   0.0034058  -0.0199812  -0.0071473  -0.0271972   0.0218153
    3   0.0033518   0.0070605  -0.0098347   0.0013581  -0.0125964   0.0115390
           37          38          39          40          41          42
    1   0.0238842  -0.0054850  -0.0018864   0.0016345  -0.0076320   0.0021855
    2  -0.0170789   0.0131645  -0.0043284   0.0050965  -0.0021457   0.0070825
    3  -0.0100210   0.0065528  -0.0018286   0.0022224  -0.0003603   0.0029842
           43          44          45          46          47          48
    1   0.0000088   0.0568944   0.0019932   0.0063497   0.0391794   0.0005044
    2   0.0050538  -0.0478390  -0.0048928  -0.0005694  -0.0628495   0.0057196
    3   0.0023303  -0.2491857  -0.0082295  -0.0190542  -0.0471971   0.0031176
           49          50          51          52          53          54
    1  -0.0048889   0.0008541   0.0014598  -0.0541869  -0.1791832   0.0836964
    2  -0.0018831  -0.0001345  -0.0042109  -0.2046390  -0.1543108  -0.0463185
    3  -0.0006666  -0.0057232   0.0033356   0.2131674   0.1554416   0.3096091
 Max gradient component =       3.096E-01
 RMS gradient           =       5.491E-02
 Gradient time:  CPU 68.21 s  wall 8.98 s
 Geometry Optimization Parameters
   NAtoms,    NIC,     NZ,  NCons,   NDum,   NFix, NCnnct, MaxDiis
       54     669       0       0       0       0       0       0


** GEOMETRY OPTIMIZATION IN DELOCALIZED INTERNAL COORDINATES **
   Searching for a Minimum

   Optimization Cycle:   1

                       Coordinates (Angstroms)
     ATOM                X               Y               Z
      1  C         4.1646410638   -0.5927293640   -0.0126416572
      2  C         3.0648445828    0.1282232595    0.4096119238
      3  C         1.7139842318   -0.3541845732    0.2788921497
      4  C         0.5318957771    0.2809670920    0.6346726127
      5  C        -0.7315878645   -0.3943488224    0.3495347566
      6  C        -1.9913165331    0.1162871505    0.5452501623
      7  H         3.2218531126    1.1166602168    0.8514217669
      8  H         1.6169954548   -1.3481502454   -0.1790831346
      9  H        -0.6373805030   -1.3842727022   -0.1109729210
     10  C        -3.2777876305   -0.5243289871    0.1879129789
     11  H        -2.0711493933    1.1423789269    0.9238374178
     12  C        -3.5740394411   -1.8431309230    0.4477094626
     13  C        -4.8923886918   -2.4992929267    0.0244833128
     14  C        -6.0123952017   -1.5018446162   -0.3562448761
     15  H        -5.2390722568   -3.1692125781    0.8354053864
     16  H        -4.6873289197   -3.1709643165   -0.8382247922
     17  C        -5.4281448555   -0.3640529745   -1.2199329663
     18  H        -6.4710422555   -1.0869376681    0.5605274459
     19  H        -6.8191492723   -2.0266384391   -0.8998899405
     20  C        -4.3112221073    0.4457404733   -0.4851108820
     21  H        -6.2225973063    0.3340563037   -1.5439215668
     22  H        -4.9961347800   -0.8041242463   -2.1406143421
     23  C        -2.6339093778   -2.7995517029    1.1746808586
     24  H        -1.8485194351   -2.2748851149    1.7369621954
     25  H        -2.1323644698   -3.4948066303    0.4717400227
     26  H        -3.2042561725   -3.4321519460    1.8804614588
     27  C        -4.9510796466    1.3747958506    0.6036856163
     28  H        -5.5248078229    0.7924611498    1.3427720541
     29  H        -5.6307726994    2.1055612020    0.1291490795
     30  H        -4.1798429577    1.9438611220    1.1509124583
     31  C        -3.6081414968    1.3467439324   -1.5552512318
     32  H        -3.0945163872    0.7308358649   -2.3132169525
     33  H        -2.8618681401    2.0190821605   -1.1023730702
     34  H        -4.3601445759    1.9720036289   -2.0699542268
     35  C         5.5577355207   -0.1792812518    0.0539081041
     36  C         6.5288853157   -1.0439921404   -0.4268844007
     37  C         7.9655550734   -0.8460350302   -0.4671683467
     38  C         8.8476166553   -1.7629705211   -0.9574009891
     39  H         8.3655325209    0.0976310779   -0.0796196746
     40  H         6.1802580625   -2.0037150367   -0.8315266447
     41  H         9.9238149729   -1.5772926203   -0.9706158482
     42  H         8.5132955101   -2.7249906229   -1.3588299919
     43  H         3.9831760294   -1.5822593520   -0.4533985196
     44  C         0.4933960549    1.6589166068    1.2843019482
     45  H         1.4968092619    2.0527767985    1.4964374141
     46  H        -0.0641743307    1.6293030232    2.2378857827
     47  H        -0.0222179933    2.3905956100    0.6346217218
     48  C         5.8812604762    1.1901963157    0.6433998562
     49  H         6.9593412816    1.4000309245    0.6561331416
     50  H         5.5134103836    1.2704651676    1.6825775512
     51  H         5.3908335062    1.9942723102    0.0648281733
     52  Fe       -1.2496458866    1.3053871744   -0.2119338578
     53  O         1.9528893464    1.4042186176   -0.1970719063
     54  O         0.7178608033    1.3622311840   -0.2026282811
   Point Group: c1    Number of degrees of freedom:   156


   Energy is  -2229.521445179


 Attempting to Generate Delocalized Internal Coordinates

156 Hessian modes will be used to form the next step
  Hessian Eigenvalues:
     0.002000    0.004190    0.005409    0.005784    0.005796    0.005809
     0.008449    0.008586    0.009724    0.010060    0.011266    0.012265
     0.013701    0.015174    0.015402    0.015687    0.015713    0.020011
     0.020398    0.021084    0.021125    0.021464    0.023921    0.024210
     0.024898    0.027066    0.027235    0.027235    0.027780    0.029101
     0.029498    0.032698    0.035978    0.040323    0.041462    0.041685
     0.043417    0.044454    0.046383    0.047993    0.049690    0.051011
     0.051430    0.052644    0.053476    0.053580    0.054795    0.057186
     0.058465    0.060656    0.065237    0.065501    0.068588    0.069080
     0.070986    0.071513    0.071786    0.071903    0.073906    0.078122
     0.078673    0.083031    0.083353    0.085476    0.092226    0.097054
     0.100152    0.101225    0.107119    0.110664    0.114502    0.117846
     0.119745    0.121836    0.124823    0.126091    0.137522    0.144489
     0.147046    0.149703    0.153805    0.157726    0.159998    0.160000
     0.160000    0.160000    0.160000    0.160000    0.160000    0.160000
     0.160000    0.160000    0.160000    0.160000    0.160000    0.160000
     0.183186    0.196913    0.202240    0.220000    0.220000    0.220001
     0.226079    0.233287    0.246129    0.249997    0.249997    0.249997
     0.252916    0.259848    0.261905    0.271900    0.275430    0.287385
     0.298279    0.298453    0.301309    0.314592    0.323461    0.327459
     0.327989    0.328652    0.330093    0.330153    0.330275    0.330399
     0.330968    0.330972    0.331047    0.331179    0.331273    0.331323
     0.332790    0.333003    0.334558    0.337414    0.337691    0.338276
     0.338352    0.338613    0.338656    0.338667    0.341450    0.341558
     0.342735    0.343534    0.344209    0.345621    0.371593    0.376390
     0.381399    0.479562    0.480898    0.488895    0.522464    0.721233

 Minimum Search - Taking Simple RFO Step
 Searching for Lamda that Minimizes Along All modes
 Value Taken    Lamda =  -0.31792225
 Calculated Step too Large.  Step scaled by  0.408395
 Step Taken.  Stepsize is  0.300000

                             Maximum     Tolerance    Cnvgd?
         Gradient           0.112901      0.000300      NO
         Displacement       0.070518      0.001200      NO
         Energy change     *********      0.000001      NO


 New Cartesian Coordinates Obtained by Inverse Iteration

 Displacement from previous Coordinates is:  0.775455
 ----------------------------------------------------------------
             Standard Nuclear Orientation (Angstroms)
    I     Atom           X                Y                Z
 ----------------------------------------------------------------
    1      C       4.1987265361    -0.5809160437    -0.0114840983
    2      C       3.1055210236     0.1619720412     0.4199868664
    3      C       1.7470307769    -0.3083683394     0.2935597421
    4      C       0.5260531217     0.3309964192     0.6551547581
    5      C      -0.7357748770    -0.3672979276     0.3638898624
    6      C      -2.0237980013     0.1230764609     0.5621367958
    7      H       3.2912814307     1.1427022814     0.8666806156
    8      H       1.6504352525    -1.3055371974    -0.1637186413
    9      H      -0.6253144487    -1.3554764427    -0.0994417979
   10      C      -3.2973594303    -0.5319404862     0.1947723943
   11      H      -2.1248091507     1.1655081774     0.9532433805
   12      C      -3.5794641618    -1.8589100796     0.4488027189
   13      C      -4.8867979957    -2.5241420852     0.0099738645
   14      C      -6.0140797321    -1.5364506456    -0.3789999204
   15      H      -5.2342526028    -3.2020900290     0.8156053120
   16      H      -4.6643346945    -3.1911202364    -0.8542791368
   17      C      -5.4355204911    -0.3881701357    -1.2342891631
   18      H      -6.4874870540    -1.1300320713     0.5360715836
   19      H      -6.8100336714    -2.0689438072    -0.9333873968
   20      C      -4.3351629672     0.4337679683    -0.4866534875
   21      H      -6.2364887998     0.3021303448    -1.5637173302
   22      H      -4.9893544005    -0.8208093391    -2.1539759451
   23      C      -2.6345686731    -2.8065859399     1.1808575592
   24      H      -1.8581181481    -2.2764047781     1.7544222694
   25      H      -2.1198074847    -3.4943384943     0.4769579725
   26      H      -3.2042967168    -3.4496134999     1.8797012297
   27      C      -4.9938580004     1.3532124564     0.6006203288
   28      H      -5.5678975470     0.7616641253     1.3346470463
   29      H      -5.6791113125     2.0785960425     0.1220464049
   30      H      -4.2328830896     1.9313270564     1.1578338071
   31      C      -3.6343196168     1.3508108232    -1.5556571748
   32      H      -3.1080264448     0.7423803977    -2.3144958091
   33      H      -2.8962332276     2.0434366639    -1.0983518726
   34      H      -4.3909914344     1.9696422023    -2.0740661531
   35      C       5.5927351342    -0.1850497785     0.0509026909
   36      C       6.5520919788    -1.0716489812    -0.4379340812
   37      C       7.9881574030    -0.8956984022    -0.4838941970
   38      C       8.8527063786    -1.8336984039    -0.9815710394
   39      H       8.4070630198     0.0421998446    -0.0976465255
   40      H       6.1857122762    -2.0272187838    -0.8418957045
   41      H       9.9346030206    -1.6675727000    -1.0007879051
   42      H       8.4971744132    -2.7914851376    -1.3820268038
   43      H       4.0022812381    -1.5689615894    -0.4536501628
   44      C       0.4529236356     1.7328972780     1.3263992653
   45      H       1.4462611730     2.1448594925     1.5536334709
   46      H      -0.1174777196     1.6893085044     2.2794452895
   47      H      -0.0758794585     2.4698167198     0.6685349927
   48      C       5.9413527586     1.1790307381     0.6394053478
   49      H       7.0242624086     1.3725025142     0.6475271601
   50      H       5.5797072163     1.2648336583     1.6823159407
   51      H       5.4609388578     1.9927405403     0.0624135559
   52      Fe     -1.2805656290     1.3503019924    -0.2051627734
   53      O       1.9848221290     1.4918366215    -0.2122616385
   54      O       0.7091123921     1.4364677821    -0.2089876753
 ----------------------------------------------------------------
 Molecular Point Group                 C1    NOp =  1
 Largest Abelian Subgroup              C1    NOp =  1
 Nuclear Repulsion Energy =  2507.0567617367 hartrees
 There are      100 alpha and       96 beta electrons
 Applying Cartesian multipole field
    Component          Value
    ---------          -----
     (2,0,0)        1.00000E-12
     (0,2,0)        2.00000E-11
     (0,0,2)       -3.00000E-11
 Nucleus-field energy     =     0.0000000298 hartrees
 Requested basis set is VDZ
 There are 184 shells and 288 basis functions
 A cutoff of  1.0D-12 yielded  11088 shell pairs
 There are     27990 function pairs (     28435 Cartesian)
 Smallest overlap matrix eigenvalue = 7.77E-04
 Guess MOs from SCF MO coefficient file

 -----------------------------------------------------------------------
  General SCF calculation program by
  Eric Jon Sundstrom, Paul Horn, Yuezhi Mao, Dmitri Zuev, Alec White,
  David Stuck, Shaama M.S., Shane Yost, Joonho Lee, David Small,
  Daniel Levine, Susi Lehtola, Hugh Burton, Evgeny Epifanovsky
 -----------------------------------------------------------------------
 Exchange:  B88      Correlation:  LYP
 Using SG-1 standard quadrature grid
 using 8 threads for integral computing
 -------------------------------------------------------
 OpenMP Integral computing Module                
 Release: version 1.0, May 2013, Q-Chem Inc. Pittsburgh 
 -------------------------------------------------------
 -------------------------------------------------------
 OpenMP BLAS3 based DFT computing Module                
 Release: version 1.0, May 2013, Q-Chem Inc. Pittsburgh 
 -------------------------------------------------------
 A unrestricted SCF calculation will be
 performed using DIIS, GDM
 SCF converges when RMS gradient is below 1.0e-08
 ---------------------------------------
  Cycle       Energy         DIIS error
 ---------------------------------------
    1   -2229.6310548706      3.30e-04  
    2   -2229.6303532788      4.46e-04  Done DIIS. Switching to GDM
 ---------------------------------------
  Cycle       Energy        RMS Gradient
 ---------------------------------------
    1   -2229.6303532788      1.45e-01   Descent step
    2   -2229.1657139435      5.23e-01  Line search: overstep
    3   -2229.6367195048      2.03e-02   Normal BFGS step
    4   -2229.6295726350      8.73e-02  Line search: overstep
    5   -2229.6372968733      7.64e-03   Normal BFGS step
    6   -2229.6370411624      2.07e-02  Line search: overstep
    7   -2229.6373949805      6.87e-03   Normal BFGS step
    8   -2229.6373494982      6.92e-03  Line search: overstep
    9   -2229.6374379656      2.43e-03   Normal BFGS step
   10   -2229.6374397722      2.28e-03   Normal BFGS step
   11   -2229.6374619391      1.54e-03   Normal BFGS step
   12   -2229.6374590631      1.29e-03  Line search: overstep
   13   -2229.6374694694      6.57e-04   Normal BFGS step
   14   -2229.6374708910      4.30e-04   Normal BFGS step
   15   -2229.6374720278      5.12e-04   Normal BFGS step
   16   -2229.6374723238      4.39e-04   Normal BFGS step
   17   -2229.6374729529      4.40e-04   Normal BFGS step
   18   -2229.6374729541      4.56e-04   Normal BFGS step
   19   -2229.6374733707      2.27e-04   Normal BFGS step
   20   -2229.6374735144      2.08e-04   Normal BFGS step
   21   -2229.6374736812      2.39e-04   Normal BFGS step
   22   -2229.6374738216      1.75e-04   Normal BFGS step
   23   -2229.6374740619      1.94e-04   Normal BFGS step
   24   -2229.6374745584      1.58e-04   Normal BFGS step
   25   -2229.6374747200      3.06e-04   Normal BFGS step
   26   -2229.6374745715      7.97e-04  Line search: overstep
   27   -2229.6374748049      2.20e-04   Normal BFGS step
   28   -2229.6374739739      6.49e-04  Line search: overstep
   29   -2229.6374748940      1.58e-04   Normal BFGS step
   30   -2229.6374749051      3.33e-04   Normal BFGS step
   31   -2229.6374748876      2.77e-04  Line search: overstep
   32   -2229.6374749505      6.98e-05   Normal BFGS step
   33   -2229.6374749561      5.67e-05   Normal BFGS step
   34   -2229.6374749723      6.81e-05   Normal BFGS step
   35   -2229.6374749655      4.65e-05   Normal BFGS step
   36   -2229.6374749823      2.80e-05   Normal BFGS step
   37   -2229.6374749814      3.80e-05   Normal BFGS step
   38   -2229.6374749851      1.50e-05   Normal BFGS step
   39   -2229.6374749838      2.88e-05   Normal BFGS step
   40   -2229.6374749856      9.21e-06   Normal BFGS step
   41   -2229.6374749848      1.52e-05   Normal BFGS step
   42   -2229.6374749859      3.22e-06   Normal BFGS step
   43   -2229.6374749857      1.02e-05   Normal BFGS step
   44   -2229.6374749859      6.35e-07   Normal BFGS step
   45   -2229.6374749859      8.80e-07   Normal BFGS step
   46   -2229.6374749859      3.73e-07   Normal BFGS step
   47   -2229.6374749859      4.15e-07   Normal BFGS step
   48   -2229.6374749859      1.48e-07   Normal BFGS step
   49   -2229.6374749859      3.40e-07   Normal BFGS step
   50   -2229.6374749859      1.12e-06   Normal BFGS step
   51   -2229.6374749859      2.97e-07   Normal BFGS step
   52   -2229.6374749859      4.47e-07   Normal BFGS step
   53   -2229.6374749859      4.54e-07   Normal BFGS step
   54   -2229.6374749859      5.49e-07   Normal BFGS step
   55   -2229.6374749859      2.70e-07   Normal BFGS step
   56   -2229.6374749859      3.23e-07   Normal BFGS step
   57   -2229.6374749859      1.93e-07   Normal BFGS step
   58   -2229.6374749859      9.60e-08   Normal BFGS step
   59   -2229.6374749859      4.52e-08   Normal BFGS step
   60   -2229.6374749859      3.74e-08   Normal BFGS step
   61   -2229.6374749859      5.20e-08   Normal BFGS step
   62   -2229.6374749859      2.89e-08   Normal BFGS step
   63   -2229.6374749859      1.98e-08   Normal BFGS step
   64   -2229.6374749859      6.32e-09  Convergence criterion met
 ---------------------------------------
 SCF time:   CPU 2460.47s  wall 309.00s 
<S^2> =          6.048618026
 SCF   energy in the final basis set =    -2229.6374749859
 Total energy in the final basis set =    -2229.6374749859
 
 --------------------------------------------------------------
 
                    Orbital Energies (a.u.)
 --------------------------------------------------------------
 
 Alpha MOs
 -- Occupied --
******* -29.803 -25.764 -25.759 -25.750 -19.160 -19.070 -10.273
-10.230 -10.215 -10.215 -10.205 -10.204 -10.193 -10.185 -10.182
-10.170 -10.166 -10.165 -10.163 -10.159 -10.149 -10.133 -10.121
-10.118 -10.107 -10.106 -10.099  -3.573  -2.412  -2.398  -2.376
 -1.462  -1.143  -1.034  -1.009  -0.982  -0.961  -0.941  -0.922
 -0.916  -0.894  -0.877  -0.850  -0.839  -0.826  -0.818  -0.815
 -0.808  -0.797  -0.768  -0.756  -0.739  -0.725  -0.715  -0.710
 -0.703  -0.693  -0.673  -0.662  -0.655  -0.646  -0.642  -0.633
 -0.624  -0.620  -0.615  -0.605  -0.598  -0.593  -0.589  -0.582
 -0.580  -0.572  -0.565  -0.557  -0.555  -0.552  -0.547  -0.541
 -0.539  -0.532  -0.525  -0.521  -0.514  -0.509  -0.507  -0.506
 -0.504  -0.493  -0.479  -0.473  -0.468  -0.467  -0.461  -0.458
 -0.454  -0.436  -0.413  -0.411
 -- Virtual --
 -0.390  -0.321  -0.304  -0.277  -0.235  -0.223  -0.201  -0.190
 -0.186  -0.177  -0.170  -0.163  -0.156  -0.152  -0.141  -0.137
 -0.127  -0.126  -0.121  -0.117  -0.112  -0.111  -0.108  -0.096
 -0.090  -0.087  -0.083  -0.080  -0.078  -0.075  -0.073  -0.067
 -0.064  -0.063  -0.057  -0.053  -0.050  -0.048  -0.034  -0.033
 -0.028  -0.026  -0.018  -0.018  -0.013  -0.005  -0.002   0.009
  0.025   0.029   0.037   0.048   0.052   0.061   0.079   0.088
  0.092   0.099   0.104   0.123   0.127   0.131   0.142   0.153
  0.171   0.177   0.180   0.186   0.187   0.194   0.198   0.203
  0.204   0.212   0.220   0.230   0.237   0.240   0.242   0.248
  0.250   0.252   0.263   0.274   0.282   0.288   0.297   0.309
  0.312   0.324   0.331   0.348   0.351   0.355   0.357   0.357
  0.363   0.364   0.368   0.374   0.375   0.380   0.387   0.388
  0.394   0.404   0.406   0.413   0.414   0.417   0.420   0.424
  0.430   0.431   0.437   0.440   0.443   0.445   0.446   0.450
  0.454   0.457   0.462   0.464   0.465   0.467   0.475   0.481
  0.483   0.486   0.487   0.495   0.497   0.501   0.510   0.512
  0.516   0.522   0.526   0.532   0.551   0.555   0.574   0.582
  0.595   0.607   0.620   0.625   0.631   0.646   0.655   0.671
  0.679   0.691   0.717   0.739   0.749   0.772   0.778   0.796
  0.811   0.826   0.843   0.848   0.848   0.859   0.868   0.871
  0.887   0.896   0.916   0.928   0.942   0.944   0.976   0.984
  1.000   1.021   1.045   1.049   1.070   1.084   1.101   1.152
  1.167   1.186   1.293   1.573
 
 Beta MOs
 -- Occupied --
******* -29.759 -25.729 -25.724 -25.719 -19.156 -19.064 -10.272
-10.230 -10.214 -10.214 -10.204 -10.203 -10.192 -10.183 -10.181
-10.169 -10.164 -10.164 -10.163 -10.159 -10.149 -10.133 -10.121
-10.118 -10.107 -10.106 -10.099  -3.469  -2.311  -2.291  -2.280
 -1.454  -1.133  -1.029  -1.004  -0.979  -0.958  -0.937  -0.918
 -0.915  -0.889  -0.875  -0.847  -0.837  -0.824  -0.813  -0.812
 -0.803  -0.796  -0.761  -0.750  -0.735  -0.721  -0.709  -0.707
 -0.700  -0.690  -0.669  -0.656  -0.653  -0.639  -0.636  -0.630
 -0.620  -0.617  -0.612  -0.603  -0.595  -0.590  -0.587  -0.579
 -0.578  -0.569  -0.561  -0.554  -0.554  -0.548  -0.546  -0.539
 -0.531  -0.530  -0.524  -0.513  -0.510  -0.507  -0.505  -0.496
 -0.475  -0.470  -0.466  -0.462  -0.456  -0.437  -0.430  -0.414
 -- Virtual --
 -0.404  -0.389  -0.381  -0.375  -0.351  -0.307  -0.292  -0.262
 -0.226  -0.217  -0.197  -0.182  -0.181  -0.174  -0.163  -0.159
 -0.153  -0.149  -0.139  -0.134  -0.126  -0.123  -0.119  -0.116
 -0.111  -0.109  -0.106  -0.095  -0.088  -0.084  -0.080  -0.079
 -0.076  -0.073  -0.070  -0.064  -0.062  -0.061  -0.056  -0.050
 -0.049  -0.045  -0.033  -0.032  -0.027  -0.025  -0.017  -0.016
 -0.012  -0.004  -0.000   0.010   0.026   0.030   0.038   0.050
  0.054   0.063   0.082   0.091   0.095   0.102   0.107   0.125
  0.130   0.134   0.144   0.155   0.174   0.179   0.182   0.188
  0.191   0.196   0.200   0.206   0.207   0.214   0.222   0.232
  0.240   0.242   0.249   0.251   0.252   0.255   0.266   0.275
  0.287   0.291   0.298   0.312   0.318   0.328   0.336   0.350
  0.352   0.357   0.358   0.359   0.365   0.366   0.370   0.375
  0.377   0.383   0.390   0.390   0.396   0.406   0.410   0.415
  0.417   0.419   0.422   0.426   0.432   0.433   0.439   0.442
  0.444   0.446   0.447   0.452   0.455   0.459   0.463   0.465
  0.466   0.468   0.476   0.482   0.485   0.487   0.488   0.496
  0.498   0.503   0.512   0.513   0.517   0.523   0.527   0.533
  0.553   0.555   0.576   0.584   0.597   0.610   0.622   0.628
  0.635   0.648   0.659   0.676   0.689   0.698   0.719   0.749
  0.753   0.776   0.782   0.804   0.819   0.830   0.847   0.850
  0.858   0.863   0.871   0.876   0.897   0.904   0.922   0.935
  0.944   0.965   0.987   0.992   1.006   1.031   1.047   1.051
  1.074   1.100   1.112   1.164   1.178   1.201   1.317   1.580
 --------------------------------------------------------------
 
          Ground-State Mulliken Net Atomic Charges

     Atom                 Charge (a.u.)    Spin (a.u.)
  --------------------------------------------------------
      1 C                    -0.078098       0.055710
      2 C                     0.146099       0.116810
      3 C                    -0.055073      -0.009420
      4 C                    -0.016322       0.057569
      5 C                    -0.137469       0.015895
      6 C                    -0.381508       0.136072
      7 H                     0.128009       0.004174
      8 H                     0.101368       0.003472
      9 H                     0.113604       0.026941
     10 C                     0.202043       0.005489
     11 H                     0.013793       0.002422
     12 C                    -0.111179       0.083869
     13 C                    -0.096832      -0.004230
     14 C                    -0.063645       0.001428
     15 H                     0.105228       0.004093
     16 H                     0.112407       0.006326
     17 C                    -0.059015       0.001351
     18 H                     0.088348       0.000417
     19 H                     0.097320       0.000292
     20 C                    -0.243591      -0.000563
     21 H                     0.088875       0.000027
     22 H                     0.068613       0.000031
     23 C                    -0.162212      -0.005414
     24 H                     0.094569       0.000981
     25 H                     0.119490       0.004604
     26 H                     0.126641       0.004218
     27 C                    -0.126242       0.002812
     28 H                     0.108274      -0.000068
     29 H                     0.109182       0.000349
     30 H                     0.071034      -0.000119
     31 C                    -0.165735       0.027561
     32 H                     0.122009       0.000348
     33 H                     0.018942       0.001668
     34 H                     0.145584       0.006854
     35 C                     0.031370       0.051363
     36 C                    -0.043421       0.165877
     37 C                     0.000669      -0.037794
     38 C                    -0.044457       0.238877
     39 H                     0.103532       0.000893
     40 H                     0.084745      -0.008116
     41 H                     0.150350      -0.012316
     42 H                     0.134575      -0.011535
     43 H                     0.076193      -0.003023
     44 C                     0.002274       0.021561
     45 H                     0.161982       0.004306
     46 H                     0.117045       0.021368
     47 H                     0.111698       0.057134
     48 C                    -0.145008      -0.005737
     49 H                     0.116709       0.000272
     50 H                     0.125909       0.005129
     51 H                     0.127960       0.004084
     52 Fe                    0.869248       2.604376
     53 O                    -0.171630       0.244533
     54 O                    -0.294254       0.106776
  --------------------------------------------------------
  Sum of atomic charges =     2.000000
  Sum of spin   charges =     4.000000

 -----------------------------------------------------------------
                    Cartesian Multipole Moments
 -----------------------------------------------------------------
    Charge (ESU x 10^10)
                 9.6064
    Dipole Moment (Debye)
         X      11.1113      Y      -2.1522      Z      -0.7756
       Tot      11.3444
    Quadrupole Moments (Debye-Ang)
        XX      99.8513     XY     -17.0495     YY    -117.0094
        XZ      -4.0363     YZ       4.8867     ZZ    -144.9661
    Octopole Moments (Debye-Ang^2)
       XXX    1172.0300    XXY    -238.6099    XYY      -0.8299
       YYY       2.8669    XXZ    -135.5861    XYZ      61.0679
       YYZ      -5.0496    XZZ     -13.1479    YZZ      12.7010
       ZZZ     -10.8948
    Hexadecapole Moments (Debye-Ang^3)
      XXXX   -3120.9515   XXXY   -1624.9034   XXYY   -2408.0323
      XYYY     -26.2576   YYYY   -1767.2490   XXXZ    -876.9211
      XXYZ     301.7370   XYYZ     -70.4769   YYYZ     -10.9390
      XXZZ   -2877.8874   XYZZ     -20.7273   YYZZ    -405.0664
      XZZZ      30.4557   YZZZ     -16.5617   ZZZZ    -684.9717
 -----------------------------------------------------------------
 Calculating analytic gradient of the SCF energy
 Gradient of SCF Energy
            1           2           3           4           5           6
    1  -0.0304083  -0.0099808  -0.0798793   0.0359041  -0.0367814   0.1080966
    2   0.0198881   0.0440953   0.0976562   0.0539643   0.0674623   0.1370495
    3   0.0147916  -0.0435839  -0.0342580  -0.0707637  -0.0093564  -0.0590157
            7           8           9          10          11          12
    1  -0.0161049   0.0016127  -0.0009811   0.0009174   0.0480472   0.0003806
    2   0.0116439   0.0068342   0.0020540  -0.0121762  -0.0200044   0.0195611
    3  -0.0176927  -0.0002589   0.0024264  -0.0007396  -0.0765556  -0.0033629
           13          14          15          16          17          18
    1   0.0019536  -0.0041175  -0.0000440  -0.0029406  -0.0017869   0.0026216
    2  -0.0087421  -0.0020949   0.0026909   0.0024870   0.0018420  -0.0006446
    3  -0.0020969   0.0003504  -0.0019331   0.0027129  -0.0006043  -0.0030589
           19          20          21          22          23          24
    1   0.0018925   0.0009707   0.0024154  -0.0011082   0.0016086  -0.0033549
    2   0.0012871  -0.0036627  -0.0022583   0.0014877  -0.0071802  -0.0012140
    3   0.0016269  -0.0021702   0.0007146   0.0040143   0.0015030  -0.0041487
           25          26          27          28          29          30
    1  -0.0003645   0.0011712  -0.0020446   0.0023032   0.0027132  -0.0031384
    2   0.0032836   0.0021111   0.0029660   0.0018982  -0.0023373  -0.0036179
    3   0.0039511  -0.0020085   0.0029536  -0.0028243   0.0015378  -0.0039034
           31          32          33          34          35          36
    1   0.0078539  -0.0008027  -0.0051422  -0.0011048   0.0292912  -0.0242025
    2   0.0218768   0.0025131  -0.0161380  -0.0062588  -0.0228547   0.0183073
    3   0.0006381   0.0057288  -0.0080397   0.0008187  -0.0103766   0.0095467
           37          38          39          40          41          42
    1   0.0184109  -0.0031104  -0.0017534   0.0016476  -0.0059750   0.0018996
    2  -0.0139555   0.0100332  -0.0031620   0.0038214  -0.0017387   0.0054286
    3  -0.0080976   0.0049265  -0.0013264   0.0016478  -0.0003302   0.0022750
           43          44          45          46          47          48
    1   0.0003640   0.0531941  -0.0000486   0.0029673   0.0299287   0.0003551
    2   0.0037860  -0.0289606  -0.0032030  -0.0002208  -0.0467403   0.0048962
    3   0.0018122  -0.2126018  -0.0042587  -0.0146453  -0.0436675   0.0026394
           49          50          51          52          53          54
    1  -0.0039075   0.0004707   0.0009839  -0.0423683  -0.1221405   0.0436159
    2  -0.0014698  -0.0000894  -0.0033179  -0.1737312  -0.1320890  -0.0330625
    3  -0.0005699  -0.0045331   0.0027069   0.1806277   0.1228586   0.2739729
 Max gradient component =       2.740E-01
 RMS gradient           =       4.518E-02
 Gradient time:  CPU 67.05 s  wall 8.80 s
 Geometry Optimization Parameters
   NAtoms,    NIC,     NZ,  NCons,   NDum,   NFix, NCnnct, MaxDiis
       54     669       0       0       0       0       0       0

 Cartesian Hessian Update
 Hessian Updated using BFGS Update


** GEOMETRY OPTIMIZATION IN DELOCALIZED INTERNAL COORDINATES **
   Searching for a Minimum

   Optimization Cycle:   2

                       Coordinates (Angstroms)
     ATOM                X               Y               Z
      1  C         4.1987265361   -0.5809160437   -0.0114840983
      2  C         3.1055210236    0.1619720412    0.4199868664
      3  C         1.7470307769   -0.3083683394    0.2935597421
      4  C         0.5260531217    0.3309964192    0.6551547581
      5  C        -0.7357748770   -0.3672979276    0.3638898624
      6  C        -2.0237980013    0.1230764609    0.5621367958
      7  H         3.2912814307    1.1427022814    0.8666806156
      8  H         1.6504352525   -1.3055371974   -0.1637186413
      9  H        -0.6253144487   -1.3554764427   -0.0994417979
     10  C        -3.2973594303   -0.5319404862    0.1947723943
     11  H        -2.1248091507    1.1655081774    0.9532433805
     12  C        -3.5794641618   -1.8589100796    0.4488027189
     13  C        -4.8867979957   -2.5241420852    0.0099738645
     14  C        -6.0140797321   -1.5364506456   -0.3789999204
     15  H        -5.2342526028   -3.2020900290    0.8156053120
     16  H        -4.6643346945   -3.1911202364   -0.8542791368
     17  C        -5.4355204911   -0.3881701357   -1.2342891631
     18  H        -6.4874870540   -1.1300320713    0.5360715836
     19  H        -6.8100336714   -2.0689438072   -0.9333873968
     20  C        -4.3351629672    0.4337679683   -0.4866534875
     21  H        -6.2364887998    0.3021303448   -1.5637173302
     22  H        -4.9893544005   -0.8208093391   -2.1539759451
     23  C        -2.6345686731   -2.8065859399    1.1808575592
     24  H        -1.8581181481   -2.2764047781    1.7544222694
     25  H        -2.1198074847   -3.4943384943    0.4769579725
     26  H        -3.2042967168   -3.4496134999    1.8797012297
     27  C        -4.9938580004    1.3532124564    0.6006203288
     28  H        -5.5678975470    0.7616641253    1.3346470463
     29  H        -5.6791113125    2.0785960425    0.1220464049
     30  H        -4.2328830896    1.9313270564    1.1578338071
     31  C        -3.6343196168    1.3508108232   -1.5556571748
     32  H        -3.1080264448    0.7423803977   -2.3144958091
     33  H        -2.8962332276    2.0434366639   -1.0983518726
     34  H        -4.3909914344    1.9696422023   -2.0740661531
     35  C         5.5927351342   -0.1850497785    0.0509026909
     36  C         6.5520919788   -1.0716489812   -0.4379340812
     37  C         7.9881574030   -0.8956984022   -0.4838941970
     38  C         8.8527063786   -1.8336984039   -0.9815710394
     39  H         8.4070630198    0.0421998446   -0.0976465255
     40  H         6.1857122762   -2.0272187838   -0.8418957045
     41  H         9.9346030206   -1.6675727000   -1.0007879051
     42  H         8.4971744132   -2.7914851376   -1.3820268038
     43  H         4.0022812381   -1.5689615894   -0.4536501628
     44  C         0.4529236356    1.7328972780    1.3263992653
     45  H         1.4462611730    2.1448594925    1.5536334709
     46  H        -0.1174777196    1.6893085044    2.2794452895
     47  H        -0.0758794585    2.4698167198    0.6685349927
     48  C         5.9413527586    1.1790307381    0.6394053478
     49  H         7.0242624086    1.3725025142    0.6475271601
     50  H         5.5797072163    1.2648336583    1.6823159407
     51  H         5.4609388578    1.9927405403    0.0624135559
     52  Fe       -1.2805656290    1.3503019924   -0.2051627734
     53  O         1.9848221290    1.4918366215   -0.2122616385
     54  O         0.7091123921    1.4364677821   -0.2089876753
   Point Group: c1    Number of degrees of freedom:   156


   Energy is  -2229.637474986

 Hessian Updated using BFGS Update

147 Hessian modes will be used to form the next step
  Hessian Eigenvalues:
     0.002000    0.004190    0.005409    0.005784    0.005796    0.005809
     0.008451    0.008598    0.009722    0.010060    0.011271    0.012264
     0.013701    0.015175    0.015403    0.015687    0.015732    0.020011
     0.020398    0.021084    0.021153    0.021464    0.023925    0.024210
     0.024899    0.027092    0.027235    0.027235    0.027835    0.029103
     0.029498    0.032690    0.035981    0.040324    0.041489    0.041710
     0.043442    0.044606    0.046406    0.047993    0.049756    0.051009
     0.051432    0.052847    0.053476    0.053930    0.054795    0.057186
     0.058465    0.060657    0.065229    0.065496    0.068589    0.069080
     0.070997    0.071509    0.071550    0.071904    0.073801    0.078180
     0.078676    0.083136    0.083364    0.085557    0.092165    0.097056
     0.099755    0.100347    0.106660    0.110651    0.114506    0.117852
     0.119758    0.121837    0.124808    0.126831    0.137741    0.144597
     0.148106    0.149655    0.155839    0.159950    0.159988    0.159999
     0.160000    0.160000    0.165585    0.183180    0.196663    0.202047
     0.219774    0.220000    0.220000    0.226703    0.234210    0.243719
     0.249991    0.249997    0.251142    0.253009    0.259836    0.261926
     0.271903    0.275437    0.287375    0.297434    0.298296    0.298675
     0.313114    0.323370    0.324934    0.327498    0.328018    0.328666
     0.330100    0.330164    0.330410    0.330969    0.330983    0.331059
     0.331184    0.331276    0.331388    0.332804    0.333019    0.334563
     0.337690    0.338270    0.338286    0.338609    0.338650    0.338664
     0.340300    0.341451    0.341556    0.342729    0.343475    0.345607
     0.353428    0.374273    0.377037    0.381342    0.479104    0.480862
     0.487816    0.522590    0.727071

 Minimum Search - Taking Simple RFO Step
 Searching for Lamda that Minimizes Along All modes
 Value Taken    Lamda =  -0.23076339
 Calculated Step too Large.  Step scaled by  0.436105
 Step Taken.  Stepsize is  0.300000

                             Maximum     Tolerance    Cnvgd?
         Gradient           0.082732      0.000300      NO
         Displacement       0.073373      0.001200      NO
         Energy change     -0.116030      0.000001      NO


 New Cartesian Coordinates Obtained by Inverse Iteration

 Displacement from previous Coordinates is:  0.748555
 ----------------------------------------------------------------
             Standard Nuclear Orientation (Angstroms)
    I     Atom           X                Y                Z
 ----------------------------------------------------------------
    1      C       4.2159017406    -0.5663763772    -0.0110408944
    2      C       3.1302007326     0.2010549332     0.4295265279
    3      C       1.7743227818    -0.2547845662     0.3062248015
    4      C       0.5245493836     0.3841332248     0.6724998319
    5      C      -0.7332907778    -0.3386324508     0.3755317136
    6      C      -2.0486460087     0.1285578541     0.5779226638
    7      H       3.3372974407     1.1758742308     0.8805138682
    8      H       1.6768615948    -1.2549909127    -0.1505314099
    9      H      -0.6072795459    -1.3245246143    -0.0920663772
   10      C      -3.3067753666    -0.5391699975     0.2016464558
   11      H      -2.1718962818     1.1859828462     0.9830514083
   12      C      -3.5726924836    -1.8744904674     0.4490895148
   13      C      -4.8679651640    -2.5496101589    -0.0047086887
   14      C      -6.0036032820    -1.5730915199    -0.4008806182
   15      H      -5.2146989272    -3.2369593883     0.7950885304
   16      H      -4.6275370247    -3.2108246703    -0.8709829477
   17      C      -5.4328569036    -0.4135582316    -1.2474478438
   18      H      -6.4919607250    -1.1766347443     0.5126371456
   19      H      -6.7879645948    -2.1138598337    -0.9659575773
   20      C      -4.3504681354     0.4210297348    -0.4868083387
   21      H      -6.2412344482     0.2679470768    -1.5818413322
   22      H      -4.9724436306    -0.8375630381    -2.1663035416
   23      C      -2.6193284815    -2.8093633308     1.1844450208
   24      H      -1.8525917230    -2.2710855107     1.7676155028
   25      H      -2.0909331135    -3.4874113518     0.4781387889
   26      H      -3.1845719766    -3.4649311115     1.8773844264
   27      C      -5.0289691412     1.3291467244     0.5988645565
   28      H      -5.6024192202     0.7271322561     1.3274609128
   29      H      -5.7208289646     2.0481047756     0.1163323642
   30      H      -4.2799588350     1.9172201323     1.1665514428
   31      C      -3.6538453490     1.3540577035    -1.5542583488
   32      H      -3.1143926879     0.7542464918    -2.3141370351
   33      H      -2.9259514680     2.0695295161    -1.0942918897
   34      H      -4.4161749358     1.9657641600    -2.0756831579
   35      C       5.6088097817    -0.1896337074     0.0493716310
   36      C       6.5536713506    -1.1002417233    -0.4473039423
   37      C       7.9882370338    -0.9488821977    -0.4971380149
   38      C       8.8313906214    -1.9095529477    -1.0017751519
   39      H       8.4289016913    -0.0189275710    -0.1117666819
   40      H       6.1665894705    -2.0497830517    -0.8509818501
   41      H       9.9189358103    -1.7661627618    -1.0261667053
   42      H       8.4517447708    -2.8611360067    -1.4015905677
   43      H       4.0022397678    -1.5517910075    -0.4551075415
   44      C       0.4190631461     1.8039759517     1.3670728722
   45      H       1.4040789985     2.2334684219     1.6057931731
   46      H      -0.1590198019     1.7434144137     2.3199742716
   47      H      -0.1220184093     2.5460718422     0.7039710594
   48      C       5.9872877820     1.1665959189     0.6372447575
   49      H       7.0754411671     1.3395062846     0.6409285358
   50      H       5.6324907492     1.2588643678     1.6838567699
   51      H       5.5203819139     1.9916698111     0.0619191907
   52      Fe     -1.3063806733     1.3974062547    -0.2009726909
   53      O       2.0133451151     1.5871676848    -0.2297245525
   54      O       0.7038418292     1.5155884314    -0.2219842457
 ----------------------------------------------------------------
 Molecular Point Group                 C1    NOp =  1
 Largest Abelian Subgroup              C1    NOp =  1
 Nuclear Repulsion Energy =  2490.1585176671 hartrees
 There are      100 alpha and       96 beta electrons
 Applying Cartesian multipole field
    Component          Value
    ---------          -----
     (2,0,0)        1.00000E-12
     (0,2,0)        2.00000E-11
     (0,0,2)       -3.00000E-11
 Nucleus-field energy     =     0.0000000306 hartrees
 Requested basis set is VDZ
 There are 184 shells and 288 basis functions
 A cutoff of  1.0D-12 yielded  11031 shell pairs
 There are     27807 function pairs (     28249 Cartesian)
 Smallest overlap matrix eigenvalue = 8.72E-04
 Guess MOs from SCF MO coefficient file

 -----------------------------------------------------------------------
  General SCF calculation program by
  Eric Jon Sundstrom, Paul Horn, Yuezhi Mao, Dmitri Zuev, Alec White,
  David Stuck, Shaama M.S., Shane Yost, Joonho Lee, David Small,
  Daniel Levine, Susi Lehtola, Hugh Burton, Evgeny Epifanovsky
 -----------------------------------------------------------------------
 Exchange:  B88      Correlation:  LYP
 Using SG-1 standard quadrature grid
 using 8 threads for integral computing
 -------------------------------------------------------
 OpenMP Integral computing Module                
 Release: version 1.0, May 2013, Q-Chem Inc. Pittsburgh 
 -------------------------------------------------------
 -------------------------------------------------------
 OpenMP BLAS3 based DFT computing Module                
 Release: version 1.0, May 2013, Q-Chem Inc. Pittsburgh 
 -------------------------------------------------------
 A unrestricted SCF calculation will be
 performed using DIIS, GDM
 SCF converges when RMS gradient is below 1.0e-08
 ---------------------------------------
  Cycle       Energy         DIIS error
 ---------------------------------------
    1   -2229.7221962930      2.99e-04  
    2   -2229.7252172315      2.91e-04  Done DIIS. Switching to GDM
 ---------------------------------------
  Cycle       Energy        RMS Gradient
 ---------------------------------------
    1   -2229.7252172315      7.76e-02   Normal BFGS step
    2   -2229.5311941333      4.42e-01  Line search: overstep
    3   -2229.7276767806      1.03e-02   Normal BFGS step
    4   -2229.7237700257      4.69e-02  Line search: overstep
    5   -2229.7280272120      4.29e-03   Normal BFGS step
    6   -2229.7279464300      9.49e-03  Line search: overstep
    7   -2229.7280841812      4.35e-03   Normal BFGS step
    8   -2229.7280703164      6.33e-03  Line search: overstep
    9   -2229.7281063562      2.73e-03   Normal BFGS step
   10   -2229.7280952107      3.78e-03  Line search: overstep
   11   -2229.7281218735      1.70e-03   Normal BFGS step
   12   -2229.7281277125      1.78e-03   Normal BFGS step
   13   -2229.7281375298      1.70e-03   Normal BFGS step
   14   -2229.7281435260      1.77e-03   Normal BFGS step
   15   -2229.7281483561      1.20e-03   Normal BFGS step
   16   -2229.7281588952      1.41e-03   Normal BFGS step
   17   -2229.7281767265      1.50e-03   Normal BFGS step
   18   -2229.7282154100      2.37e-03   Normal BFGS step
   19   -2229.7281936402      1.23e-02  Line search: overstep
   20   -2229.7282580456      4.63e-03   Normal BFGS step
   21   -2229.7282683192      1.00e-02   Normal BFGS step
   22   -2229.7283702384      3.11e-03   Normal BFGS step
   23   -2229.7284186639      5.62e-03   Normal BFGS step
   24   -2229.7284208950      1.12e-02   Normal BFGS step
   25   -2229.7284875228      4.34e-03   Normal BFGS step
   26   -2229.7284656123      8.82e-03  Line search: overstep
   27   -2229.7285463906      4.32e-03   Normal BFGS step
   28   -2229.7285638139      7.50e-03   Normal BFGS step
   29   -2229.7286295363      1.01e-02   Normal BFGS step
   30   -2229.7285159581      6.45e-03  Line search: overstep
   31   -2229.7286982494      4.27e-03   Normal BFGS step
   32   -2229.7287389853      3.61e-03   Normal BFGS step
   33   -2229.7287710781      2.98e-03   Normal BFGS step
   34   -2229.7287976276      3.46e-03   Normal BFGS step
   35   -2229.7288090082      2.20e-03   Normal BFGS step
   36   -2229.7288156717      1.82e-03   Normal BFGS step
   37   -2229.7288046059      2.86e-03  Line search: overstep
   38   -2229.7288193642      7.22e-04   Normal BFGS step
   39   -2229.7288171471      1.80e-03  Line search: overstep
   40   -2229.7288205848      7.54e-04   Normal BFGS step
   41   -2229.7288205550      5.38e-04  Line search: overstep
   42   -2229.7288211353      2.67e-04   Normal BFGS step
   43   -2229.7288210397      4.90e-04  Line search: overstep
   44   -2229.7288213277      1.96e-04   Normal BFGS step
   45   -2229.7288213801      5.83e-05   Normal BFGS step
   46   -2229.7288213947      4.18e-05   Normal BFGS step
   47   -2229.7288214022      4.34e-05   Normal BFGS step
   48   -2229.7288214046      4.22e-05   Normal BFGS step
   49   -2229.7288214087      2.05e-05   Normal BFGS step
   50   -2229.7288214082      3.46e-05   Normal BFGS step
   51   -2229.7288214106      1.12e-05   Normal BFGS step
   52   -2229.7288214109      8.50e-06   Normal BFGS step
   53   -2229.7288214114      4.38e-06   Normal BFGS step
   54   -2229.7288214113      6.99e-06   Normal BFGS step
   55   -2229.7288214114      3.76e-06   Normal BFGS step
   56   -2229.7288214113      9.78e-06   Normal BFGS step
   57   -2229.7288214114      3.86e-06   Normal BFGS step
   58   -2229.7288214114      4.88e-06   Normal BFGS step
   59   -2229.7288214115      1.59e-06   Normal BFGS step
   60   -2229.7288214115      2.47e-06   Normal BFGS step
   61   -2229.7288214115      5.47e-07   Normal BFGS step
   62   -2229.7288214115      1.51e-06   Normal BFGS step
   63   -2229.7288214115      7.09e-07   Normal BFGS step
   64   -2229.7288214115      1.84e-06   Normal BFGS step
   65   -2229.7288214115      4.53e-07   Normal BFGS step
   66   -2229.7288214115      1.72e-06   Normal BFGS step
   67   -2229.7288214115      2.53e-07   Normal BFGS step
   68   -2229.7288214115      5.09e-07   Normal BFGS step
   69   -2229.7288214115      5.87e-08   Normal BFGS step
   70   -2229.7288214115      1.40e-07   Normal BFGS step
   71   -2229.7288214115      3.05e-08   Normal BFGS step
  /scratch/qcdevops/jenkins/workspace/build_qchem_linux_distrib/tags/qc511/qchem/libgscf/libgscf/opt/gdm.C::WARNING energy changes are now smaller than effective accuracy.
  /scratch/qcdevops/jenkins/workspace/build_qchem_linux_distrib/tags/qc511/qchem/libgscf/libgscf/opt/gdm.C::        calculation will continue, but THRESH should be increased
  /scratch/qcdevops/jenkins/workspace/build_qchem_linux_distrib/tags/qc511/qchem/libgscf/libgscf/opt/gdm.C::        or SCF_CONVERGENCE decreased. 
  /scratch/qcdevops/jenkins/workspace/build_qchem_linux_distrib/tags/qc511/qchem/libgscf/libgscf/opt/gdm.C::        effective_thresh = 1.15e-08
   72   -2229.7288214115      7.03e-08   Normal BFGS step
   73   -2229.7288214115      1.43e-08   Normal BFGS step
   74   -2229.7288214115      2.69e-08   Normal BFGS step
   75   -2229.7288214115      1.60e-08   Normal BFGS step
   76   -2229.7288214115      5.79e-08   Normal BFGS step
   77   -2229.7288214115      9.83e-09  Convergence criterion met
 ---------------------------------------
 SCF time:   CPU 2918.50s  wall 366.00s 
<S^2> =          6.047993773
 SCF   energy in the final basis set =    -2229.7288214115
 Total energy in the final basis set =    -2229.7288214115
 
 --------------------------------------------------------------
 
                    Orbital Energies (a.u.)
 --------------------------------------------------------------
 
 Alpha MOs
 -- Occupied --
******* -29.801 -25.763 -25.753 -25.750 -19.155 -19.068 -10.270
-10.226 -10.213 -10.210 -10.201 -10.199 -10.191 -10.188 -10.185
-10.170 -10.169 -10.164 -10.163 -10.160 -10.151 -10.132 -10.120
-10.117 -10.107 -10.107 -10.100  -3.569  -2.409  -2.384  -2.380
 -1.418  -1.119  -1.020  -0.999  -0.979  -0.955  -0.933  -0.915
 -0.914  -0.892  -0.872  -0.846  -0.838  -0.824  -0.811  -0.803
 -0.800  -0.795  -0.757  -0.749  -0.735  -0.719  -0.710  -0.706
 -0.702  -0.691  -0.668  -0.655  -0.652  -0.638  -0.636  -0.631
 -0.621  -0.618  -0.610  -0.603  -0.596  -0.591  -0.588  -0.581
 -0.578  -0.569  -0.561  -0.555  -0.555  -0.549  -0.546  -0.540
[...]
 -0.606  -0.599  -0.592  -0.588  -0.586  -0.584  -0.581  -0.581
 -0.573  -0.569  -0.568  -0.560  -0.555  -0.554  -0.544  -0.542
 -0.539  -0.536  -0.531  -0.529  -0.521  -0.513  -0.511  -0.509
 -0.483  -0.477  -0.471  -0.466  -0.444  -0.428  -0.424  -0.416
 -- Virtual --
 -0.391  -0.379  -0.376  -0.369  -0.357  -0.324  -0.294  -0.263
 -0.234  -0.226  -0.214  -0.193  -0.186  -0.174  -0.169  -0.158
 -0.152  -0.149  -0.145  -0.136  -0.127  -0.125  -0.119  -0.118
 -0.114  -0.111  -0.110  -0.099  -0.098  -0.091  -0.084  -0.080
 -0.076  -0.073  -0.070  -0.069  -0.066  -0.065  -0.061  -0.055
 -0.053  -0.045  -0.042  -0.038  -0.038  -0.031  -0.029  -0.018
 -0.015  -0.006  -0.001   0.008   0.016   0.028   0.034   0.042
  0.054   0.064   0.071   0.081   0.089   0.096   0.108   0.117
  0.119   0.135   0.147   0.153   0.155   0.172   0.180   0.186
  0.188   0.193   0.201   0.207   0.213   0.222   0.224   0.228
  0.236   0.238   0.239   0.246   0.247   0.254   0.263   0.272
  0.280   0.285   0.297   0.313   0.332   0.336   0.341   0.346
  0.348   0.349   0.357   0.359   0.366   0.368   0.372   0.376
  0.380   0.383   0.387   0.391   0.394   0.397   0.399   0.407
  0.411   0.415   0.419   0.422   0.423   0.425   0.430   0.431
  0.439   0.440   0.442   0.446   0.447   0.450   0.451   0.457
  0.459   0.464   0.466   0.474   0.477   0.480   0.483   0.489
  0.491   0.498   0.503   0.507   0.508   0.518   0.522   0.524
  0.542   0.551   0.554   0.569   0.583   0.597   0.606   0.613
  0.622   0.632   0.634   0.646   0.656   0.661   0.668   0.690
  0.719   0.721   0.741   0.751   0.771   0.779   0.797   0.799
  0.822   0.827   0.835   0.847   0.859   0.865   0.872   0.877
  0.888   0.913   0.924   0.927   0.946   0.966   0.987   1.004
  1.016   1.035   1.044   1.062   1.147   1.180   1.246   1.314
 --------------------------------------------------------------
 
          Ground-State Mulliken Net Atomic Charges

     Atom                 Charge (a.u.)    Spin (a.u.)
  --------------------------------------------------------
      1 C                    -0.050157       0.016650
      2 C                     0.022962      -0.070039
      3 C                     0.046191       0.055490
      4 C                    -0.358130      -0.107263
      5 C                    -0.101119      -0.044595
      6 C                    -0.400617      -0.004805
      7 H                     0.090590       0.003177
      8 H                     0.085468      -0.001869
      9 H                     0.118726       0.002077
     10 C                     0.155064       0.044770
     11 H                     0.146433       0.011258
     12 C                    -0.082830       0.070811
     13 C                    -0.108322      -0.004741
     14 C                    -0.067192       0.001071
     15 H                     0.110519       0.003173
     16 H                     0.118954       0.007721
     17 C                    -0.064748       0.003867
     18 H                     0.094648       0.000414
     19 H                     0.101919       0.000581
     20 C                    -0.170022      -0.002126
     21 H                     0.094549       0.000786
     22 H                     0.071889      -0.000087
     23 C                    -0.169423      -0.005871
     24 H                     0.103329       0.000195
     25 H                     0.127764       0.005474
     26 H                     0.136420       0.003755
     27 C                    -0.140931       0.002387
     28 H                     0.111252      -0.000038
     29 H                     0.113882      -0.000339
     30 H                     0.080930       0.000514
     31 C                    -0.252024       0.015277
     32 H                     0.109513       0.000049
     33 H                     0.044247      -0.001797
     34 H                     0.154689       0.004742
     35 C                     0.017776      -0.023203
     36 C                    -0.036046      -0.050979
     37 C                    -0.004422       0.014688
     38 C                    -0.049744      -0.085310
     39 H                     0.111517      -0.000399
     40 H                     0.092573       0.002517
     41 H                     0.155787       0.004393
     42 H                     0.140916       0.004123
     43 H                     0.087036      -0.000592
     44 C                    -0.136558       0.006976
     45 H                     0.153089      -0.001595
     46 H                     0.120314       0.001078
     47 H                     0.130846      -0.001775
     48 C                    -0.149676       0.002591
     49 H                     0.117223      -0.000090
     50 H                     0.127136      -0.001605
     51 H                     0.125588      -0.001636
     52 Fe                    0.993344       2.712264
     53 O                     0.004576       0.863464
     54 O                    -0.275698       0.544420
  --------------------------------------------------------
  Sum of atomic charges =     2.000000
  Sum of spin   charges =     4.000000

 -----------------------------------------------------------------
                    Cartesian Multipole Moments
 -----------------------------------------------------------------
    Charge (ESU x 10^10)
                 9.6064
    Dipole Moment (Debye)
         X      10.5702      Y      -3.2899      Z       0.3990
       Tot      11.0776
    Quadrupole Moments (Debye-Ang)
        XX     104.6373     XY      -8.2868     YY    -120.5936
        XZ      -7.0679     YZ       5.9847     ZZ    -141.9691
    Octopole Moments (Debye-Ang^2)
       XXX    1161.9356    XXY    -206.0242    XYY     -17.8008
       YYY      11.8804    XXZ    -132.5183    XYZ      67.0383
       YYZ      21.7902    XZZ      -9.6514    YZZ      12.0293
       ZZZ      65.3311
    Hexadecapole Moments (Debye-Ang^3)
      XXXX   -2603.1005   XXXY   -1369.1573   XXYY   -2388.5407
      XYYY    -115.4464   YYYY   -1594.6046   XXXZ   -1048.5709
      XXYZ     364.6905   XYYZ     -63.8088   YYYZ     122.9643
      XXZZ   -2789.0396   XYZZ     -85.9349   YYZZ    -482.9584
      XZZZ      80.6070   YZZZ     152.7727   ZZZZ   -1345.9336
 -----------------------------------------------------------------
 Calculating analytic gradient of the SCF energy
 Gradient of SCF Energy
            1           2           3           4           5           6
    1  -0.0001333  -0.0001681  -0.0001680   0.0004413   0.0000856   0.0002075
    2   0.0000267  -0.0000073   0.0000556  -0.0001048   0.0000678  -0.0001407
    3   0.0000653   0.0000795  -0.0000726   0.0001986  -0.0000320   0.0002341
            7           8           9          10          11          12
    1  -0.0000536   0.0000679  -0.0001776   0.0000908  -0.0002809   0.0001127
    2   0.0000876  -0.0000102   0.0001188   0.0001996  -0.0000106   0.0000362
    3  -0.0001568  -0.0000371  -0.0002430  -0.0002324   0.0002891  -0.0000913
           13          14          15          16          17          18
    1  -0.0000034   0.0000162  -0.0000813  -0.0000244  -0.0000608   0.0000255
    2  -0.0000617  -0.0000367   0.0000028   0.0000216   0.0000113   0.0000008
    3   0.0001026  -0.0000097   0.0000306   0.0000651   0.0000126  -0.0000255
           19          20          21          22          23          24
    1  -0.0000227  -0.0000662  -0.0000125   0.0000088  -0.0000355  -0.0000315
    2   0.0000063   0.0000343   0.0000153   0.0000365   0.0000305  -0.0000159
    3  -0.0000514   0.0001038  -0.0000238  -0.0000001   0.0000372  -0.0000375
           25          26          27          28          29          30
    1  -0.0000241   0.0000485  -0.0000600   0.0000951   0.0000850  -0.0001219
    2   0.0000580  -0.0000090   0.0000006   0.0001389  -0.0001017  -0.0001168
    3   0.0000361   0.0000060   0.0000140  -0.0000513   0.0000591  -0.0000937
           31          32          33          34          35          36
    1   0.0000101  -0.0000106   0.0000893  -0.0001156  -0.0000973   0.0000601
    2   0.0000340  -0.0000022  -0.0000860  -0.0000620  -0.0000322  -0.0000390
    3   0.0000351   0.0000272  -0.0000195  -0.0000248  -0.0000249  -0.0000048
           37          38          39          40          41          42
    1   0.0000619   0.0000842   0.0000032   0.0000534   0.0000209   0.0000388
    2  -0.0000137  -0.0000278  -0.0000691   0.0000705  -0.0000637   0.0000573
    3   0.0000386  -0.0000568  -0.0000719   0.0000160  -0.0000311   0.0000451
           43          44          45          46          47          48
    1   0.0000951   0.0000169  -0.0001347  -0.0000371   0.0000981   0.0000508
    2   0.0001007  -0.0002164   0.0000984   0.0001299   0.0001527  -0.0000124
    3   0.0000345   0.0004157  -0.0000876  -0.0000403   0.0000025   0.0000097
           49          50          51          52          53          54
    1   0.0000508  -0.0000800  -0.0000483  -0.0001721  -0.0000016   0.0002048
    2   0.0000168  -0.0000100  -0.0001306  -0.0001293  -0.0002721   0.0001724
    3  -0.0000699   0.0000026  -0.0000656  -0.0001647   0.0001028  -0.0002433
 Max gradient component =       4.413E-04
 RMS gradient           =       1.061E-04
 Gradient time:  CPU 64.57 s  wall 8.52 s
 Geometry Optimization Parameters
   NAtoms,    NIC,     NZ,  NCons,   NDum,   NFix, NCnnct, MaxDiis
       54     669       0       0       0       0       0       0

 Cartesian Hessian Update
 Hessian Updated using BFGS Update


** GEOMETRY OPTIMIZATION IN CARTESIAN COORDINATES **
   Searching for a Minimum

   Optimization Cycle: 100

                       Coordinates (Angstroms)
     ATOM                X               Y               Z
      1  C         4.1721195666   -0.4898579146    0.0118716983
      2  C         3.0247830301    0.1585342719    0.5611702119
      3  C         1.7382505928   -0.3770774510    0.4157914814
      4  C         0.4997995831    0.1851040083    0.9379410564
      5  C        -0.7109331261   -0.6252682211    0.7722489874
      6  C        -2.0106801293   -0.0313901058    0.7998053652
      7  H         3.1671086339    1.0977723879    1.1182881272
      8  H         1.6476160152   -1.3221388525   -0.1517884748
      9  H        -0.5971072004   -1.6632817654    0.4176189144
     10  C        -3.2736113644   -0.5859572749    0.3148854583
     11  H        -2.0978430096    0.9912461348    1.2340367880
     12  C        -3.7000818873   -1.8979101234    0.5774978284
     13  C        -5.0057853396   -2.4382260914    0.0165115115
     14  C        -5.9954954512   -1.3700869455   -0.5148113990
     15  H        -5.4911796528   -3.0938155205    0.7748942861
     16  H        -4.7286214187   -3.1370084899   -0.8186417993
     17  C        -5.2391238966   -0.2977162008   -1.3291443008
     18  H        -6.5460249641   -0.9067550091    0.3357687217
     19  H        -6.7658383727   -1.8579240527   -1.1499060093
     20  C        -4.1462523964    0.4475606742   -0.4847454533
     21  H        -5.9476796431    0.4576099772   -1.7369092545
     22  H        -4.7532151962   -0.7828092652   -2.2099435313
     23  C        -2.9453513682   -2.8726865888    1.4611550026
     24  H        -2.0861937075   -2.4367832464    2.0070350611
     25  H        -2.5879229352   -3.7469274092    0.8628602964
     26  H        -3.6397183710   -3.3030429806    2.2202637893
     27  C        -4.8136185437    1.4711138827    0.5001093911
     28  H        -5.4903287801    0.9596704782    1.2165386731
     29  H        -5.4162079575    2.2161363986   -0.0662801278
     30  H        -4.0596582294    2.0365155180    1.0962286178
     31  C        -3.2320830304    1.2291778253   -1.4970448233
     32  H        -2.6741402513    0.5303035214   -2.1734099888
     33  H        -2.5345940937    1.9535864813   -0.9726945957
     34  H        -3.8268326387    1.8872356226   -2.1709988786
     35  C         5.5204875396   -0.0384729281    0.1177172342
     36  C         6.5074815931   -0.8632166496   -0.4981860412
     37  C         7.9248952035   -0.6452546105   -0.5360346486
     38  C         8.7805858981   -1.5340748302   -1.1648810627
     39  H         8.3523184288    0.2487528009   -0.0539706633
     40  H         6.1452757490   -1.7778550783   -1.0043083569
     41  H         9.8708768732   -1.3608317654   -1.1888396425
     42  H         8.4081471306   -2.4483548444   -1.6639019456
     43  H         3.9969992528   -1.4306533908   -0.5412625740
     44  C         0.5631373684    1.3871267520    1.8903905825
     45  H         1.0656296202    1.0750173812    2.8371905495
     46  H        -0.4337696489    1.7750619445    2.1859917787
     47  H         1.1523855986    2.2340953481    1.4731985013
     48  C         5.8580146816    1.2529586156    0.8505193412
     49  H         6.9424165790    1.4757742543    0.8513977107
     50  H         5.5332587362    1.2091312124    1.9156955018
     51  H         5.3469107799    2.1248396984    0.3809251956
     52  Fe       -0.7601804157    0.8073652482   -0.7462404842
     53  O         0.8514921908    1.9813522148   -2.9182160242
     54  O         0.2969689673    0.9618727456   -2.2541817915
   Point Group: c1    Number of degrees of freedom:   156


   Energy is  -2230.220023305


 Translations and Rotations Projected Out of Hessian

152 Hessian modes will be used to form the next step
  Hessian Eigenvalues:
     0.000426    0.001043    0.001492    0.002024    0.002371    0.003186
     0.005183    0.006405    0.009969    0.011320    0.012611    0.017163
     0.020845    0.027577    0.033954    0.037788    0.043430    0.053160
     0.056392    0.059257    0.077913    0.139187    0.164143    0.177734
     0.232856    0.256776    0.285418    0.344878    0.402280    0.420547
     0.460225    0.483399    0.550622    0.553794    0.577674    0.613398
     0.651703    0.724861    0.729659    0.779158    0.827529    0.852116
     0.872837    0.887639    0.916736    0.927856    0.950691    0.953395
     0.963759    0.973555    0.977802    0.979305    0.981557    0.985599
     0.986934    0.988845    0.989833    0.992054    0.994846    0.995840
     0.996098    0.996469    0.997395    0.998303    0.998773    0.999343
     0.999422    0.999634    0.999689    0.999796    0.999883    0.999908
     0.999945    0.999959    0.999976    0.999986    0.999991    0.999992
     0.999996    0.999998    0.999998    0.999999    0.999999    1.000000
     1.000000    1.000000    1.000000    1.000000    1.000000    1.000001
     1.000001    1.000002    1.000002    1.000004    1.000006    1.000006
     1.000010    1.000011    1.000015    1.000019    1.000025    1.000027
     1.000031    1.000042    1.000051    1.000061    1.000090    1.000107
     1.000151    1.000197    1.000237    1.000301    1.000406    1.000416
     1.000452    1.000724    1.000966    1.001053    1.001224    1.001298
     1.001573    1.002304    1.002553    1.003885    1.005035    1.005584
     1.006744    1.009608    1.014021    1.017318    1.019548    1.022572
     1.029687    1.030406    1.035592    1.039691    1.050917    1.073296
     1.075969    1.111061    1.121659    1.158422    1.200473    1.210066
     1.270959    1.388578    1.392335    1.422546    1.706879    2.021100
     2.138636    2.585156

 Minimum Search - Taking Simple RFO Step
 Searching for Lamda that Minimizes Along All modes
 Value Taken    Lamda =  -0.00000627
 Step Taken.  Stepsize is  0.030688

                             Maximum     Tolerance    Cnvgd?
         Gradient           0.000441      0.000300      NO
         Displacement       0.007555      0.001200      NO
         Energy change     -0.000005      0.000001      NO

 ----------------------------------------------------------------
             Standard Nuclear Orientation (Angstroms)
    I     Atom           X                Y                Z
 ----------------------------------------------------------------
    1      C       4.1718303719    -0.4910671119     0.0118501459
    2      C       3.0240904255     0.1565787925     0.5608461642
    3      C       1.7380086979    -0.3796215601     0.4152208927
    4      C       0.4994460451     0.1833737882     0.9366936170
    5      C      -0.7108409366    -0.6276607901     0.7722580369
    6      C      -2.0100983240    -0.0329567354     0.7992332665
    7      H       3.1654917061     1.0958109963     1.1182311225
    8      H       1.6473102866    -1.3250276871    -0.1521335078
    9      H      -0.5966076867    -1.6659262041     0.4182837063
   10      C      -3.2731951052    -0.5865341350     0.3147157227
   11      H      -2.0959633980     0.9905130893     1.2310457229
   12      C      -3.7006258046    -1.8980565187     0.5774712901
   13      C      -5.0066528660    -2.4374394372     0.0166217068
   14      C      -5.9960603785    -1.3686508476    -0.5138252904
   15      H      -5.4919461456    -3.0932263872     0.7748148147
   16      H      -4.7300575988    -3.1358857711    -0.8189903112
   17      C      -5.2393576249    -0.2966282521    -1.3282792566
   18      H      -6.5458339465    -0.9052907358     0.3371993803
   19      H      -6.7671220033    -1.8561401316    -1.1484329244
   20      C      -4.1453002133     0.4477352387    -0.4845684344
   21      H      -5.9473938354     0.4592798388    -1.7357788573
   22      H      -4.7542921338    -0.7821753441    -2.2092113271
   23      C      -2.9466530793    -2.8729178718     1.4613287828
   24      H      -2.0874395905    -2.4375119607     2.0074236820
   25      H      -2.5896908096    -3.7474867607     0.8633302613
   26      H      -3.6413687477    -3.3027247050     2.2202984534
   27      C      -4.8110626232     1.4719474349     0.5005447351
   28      H      -5.4882525948     0.9614472693     1.2171241578
   29      H      -5.4129255245     2.2179229014    -0.0654158562
   30      H      -4.0564717760     2.0364671945     1.0968922303
   31      C      -3.2313138430     1.2286967972    -1.4975377315
   32      H      -2.6747425431     0.5290782104    -2.1741364656
   33      H      -2.5329686289     1.9529280982    -0.9738472921
   34      H      -3.8264614872     1.8871335755    -2.1707384799
   35      C       5.5196522105    -0.0383587058     0.1177403027
   36      C       6.5073254913    -0.8623770617    -0.4979434483
   37      C       7.9244894505    -0.6429220843    -0.5357175802
   38      C       8.7811697707    -1.5311483819    -1.1640420789
   39      H       8.3513369111     0.2515564682    -0.0538566288
   40      H       6.1459031966    -1.7776606310    -1.0037170196
   41      H       9.8712712927    -1.3568335938    -1.1878235470
   42      H       8.4095708560    -2.4461673904    -1.6624347985
   43      H       3.9970299650    -1.4322638688    -0.5408828859
   44      C       0.5633529051     1.3856258316     1.8888463771
   45      H       1.0671874634     1.0741413758     2.8350990552
   46      H      -0.4331727363     1.7738919397     2.1849144499
   47      H       1.1521722372     2.2323711240     1.4698145519
   48      C       5.8562408115     1.2534552893     0.8504727893
   49      H       6.9403854693     1.4773513808     0.8516117571
   50      H       5.5314866093     1.2095087185     1.9155937298
   51      H       5.3446353855     2.1248593984     0.3806701387
   52      Fe     -0.7589112428     0.8063851444    -0.7456442423
   53      O       0.8535378311     1.9801847637    -2.9181464287
   54      O       0.2967444307     0.9619537975    -2.2538808588
 ----------------------------------------------------------------
 Molecular Point Group                 C1    NOp =  1
 Largest Abelian Subgroup              C1    NOp =  1
 Nuclear Repulsion Energy =  2404.2063348271 hartrees
 There are      100 alpha and       96 beta electrons


 *******************************************
 **  MAXIMUM OPTIMIZATION CYCLES REACHED  **
 *******************************************

 Q-Chem fatal error occurred in module 0, line  456:

 Maximum optimization cycles reached

