
Running Job 1 of 1 car_2_sys_2_opt_vdz_gga.in
qchem car_2_sys_2_opt_vdz_gga.in_11258.0 /scr/c295_lal/137105/qchem11258/ 1
/usr/software/qchem_511/exe/qcprog.exe_s car_2_sys_2_opt_vdz_gga.in_11258.0 /scr/c295_lal/137105/qchem11258/
Check license passed

                  Welcome to Q-Chem
     A Quantum Leap Into The Future Of Chemistry


 Q-Chem 5.1, Q-Chem, Inc., Pleasanton, CA (2018)

 Yihan Shao,  Zhengting Gan,  E. Epifanovsky,  A. T. B. Gilbert,  M. Wormit,  
 J. Kussmann,  A. W. Lange,  A. Behn,  Jia Deng,  Xintian Feng,  D. Ghosh,  
 M. Goldey,  P. R. Horn,  L. D. Jacobson,  I. Kaliman,  T. Kus,  A. Landau,  
 Jie Liu,  E. I. Proynov,  R. M. Richard,  R. P. Steele,  E. J. Sundstrom,  
 H. L. Woodcock III,  P. M. Zimmerman,  D. Zuev,  B. Albrecht,  E. Alguire,  
 S. A. Baeppler,  D. Barton,  Z. Benda,  Y. A. Bernard,  E. J. Berquist,  
 K. B. Bravaya,  H. Burton,  D. Casanova,  Chun-Min Chang,  Yunqing Chen,  
 A. Chien,  K. D. Closser,  M. P. Coons,  S. Coriani,  S. Dasgupta,  
 A. L. Dempwolff,  M. Diedenhofen,  Hainam Do,  R. G. Edgar,  Po-Tung Fang,  
 S. Faraji,  S. Fatehi,  Qingguo Feng,  K. D. Fenk,  J. Fosso-Tande,  
 Qinghui Ge,  A. Ghysels,  G. Gidofalvi,  J. Gomes,  J. Gonthier,  A. Gunina,  
 D. Hait,  M. W. D. Hanson-Heine,  P. H. P. Harbach,  A. W. Hauser,  
 J. E. Herr,  E. G. Hohenstein,  Z. C. Holden,  Kerwin Hui,  B. C. Huynh,  
 T.-C. Jagau,  Hyunjun Ji,  B. Kaduk,  K. Khistyaev,  Jaehoon Kim,  
 P. Klunzinger,  K. Koh,  D. Kosenkov,  L. Koulias,  T. Kowalczyk,  
 C. M. Krauter,  A. Kunitsa,  Ka Un Lao,  A. Laurent,  K. V. Lawler,  
 Joonho Lee,  D. Lefrancois,  S. Lehtola,  D. S. Levine,  Yi-Pei Li,  
 You-Sheng Lin,  Fenglai Liu,  E. Livshits,  A. Luenser,  P. Manohar,  
 E. Mansoor,  S. F. Manzer,  Shan-Ping Mao,  Yuezhi Mao,  N. Mardirossian,  
 A. V. Marenich,  T. Markovich,  L. A. Martinez-Martinez,  S. A. Maurer,  
 N. J. Mayhall,  S. C. McKenzie,  J.-M. Mewes,  A. F. Morrison,  
 J. W. Mullinax,  K. Nanda,  T. S. Nguyen-Beck,  R. Olivares-Amaya,  
 J. A. Parkhill,  T. M. Perrine,  F. Plasser,  P. Pokhilko,  S. Prager,  
 A. Prociuk,  E. Ramos,  D. R. Rehn,  F. Rob,  M. Schneider,  N. Sergueev,  
 S. M. Sharada,  S. Sharma,  D. W. Small,  T. Stauch,  T. Stein,  
 Yu-Chuan Su,  A. J. W. Thom,  A. Tkatchenko,  T. Tsuchimochi,  N. M. Tubman,  
 L. Vogt,  M. L. Vidal,  O. Vydrov,  M. A. Watson,  J. Wenzel,  
 M. de Wergifosse,  T. A. Wesolowski,  A. White,  J. Witte,  A. Yamada,  
 Jun Yang,  K. Yao,  S. Yeganeh,  S. R. Yost,  Zhi-Qiang You,  A. Zech,  
 Igor Ying Zhang,  Xing Zhang,  Yan Zhao,  Ying Zhu,  B. R. Brooks,  
 G. K. L. Chan,  C. J. Cramer,  M. S. Gordon,  W. J. Hehre,  A. Klamt,  
 M. W. Schmidt,  C. D. Sherrill,  D. G. Truhlar,  A. Aspuru-Guzik,  R. Baer,  
 A. T. Bell,  N. A. Besley,  Jeng-Da Chai,  A. E. DePrince, III,  
 R. A. DiStasio Jr.,  A. Dreuw,  B. D. Dunietz,  T. R. Furlani,  
 Chao-Ping Hsu,  Yousung Jung,  Jing Kong,  D. S. Lambrecht,  WanZhen Liang,  
 C. Ochsenfeld,  V. A. Rassolov,  L. V. Slipchenko,  J. E. Subotnik,  
 T. Van Voorhis,  J. M. Herbert,  A. I. Krylov,  P. M. W. Gill,  M. Head-Gordon

 Contributors to earlier versions of Q-Chem not listed above: 
 R. D. Adamson,  B. Austin,  J. Baker,  G. J. O. Beran,  K. Brandhorst,  
 S. T. Brown,  E. F. C. Byrd,  A. K. Chakraborty,  C.-L. Cheng,  
 Siu Hung Chien,  D. M. Chipman,  D. L. Crittenden,  H. Dachsel,  
 R. J. Doerksen,  A. D. Dutoi,  L. Fusti-Molnar,  W. A. Goddard III,  
 A. Golubeva-Zadorozhnaya,  S. R. Gwaltney,  G. Hawkins,  A. Heyden,  
 S. Hirata,  G. Kedziora,  F. J. Keil,  C. Kelley,  Jihan Kim,  R. A. King,  
 R. Z. Khaliullin,  P. P. Korambath,  W. Kurlancheek,  A. M. Lee,  M. S. Lee,  
 S. V. Levchenko,  Ching Yeh Lin,  D. Liotard,  R. C. Lochan,  I. Lotan,  
 P. E. Maslen,  N. Nair,  D. P. O'Neill,  D. Neuhauser,  E. Neuscamman,  
 C. M. Oana,  R. Olson,  B. Peters,  R. Peverati,  P. A. Pieniazek,  
 Y. M. Rhee,  J. Ritchie,  M. A. Rohrdanz,  E. Rosta,  N. J. Russ,  
 H. F. Schaefer III,  N. E. Schultz,  N. Shenvi,  A. C. Simmonett,  A. Sodt,  
 D. Stuck,  K. S. Thanthiriwatte,  V. Vanovschi,  Tao Wang,  A. Warshel,  
 C. F. Williams,  Q. Wu,  X. Xu,  W. Zhang

 Please cite Q-Chem as follows:
 Y. Shao et al., Mol. Phys. 113, 184-215 (2015)
 DOI: 10.1080/00268976.2014.952696

 Q-Chem 5.1.1 for Intel X86 EM64T Linux

 Parts of Q-Chem use Armadillo 8.300.2 (Tropical Shenanigans).
 http://arma.sourceforge.net/

 Q-Chem begins on Wed Oct 31 16:29:06 2018  

Host: cub-0-9.local
0

     Scratch files written to /scr/c295_lal/137105/qchem11258//
 Aug318 |scratch|qcdevops|jenkins|workspace|build_RNUM -1
Processing $rem in /usr/software/qchem_511/config/preferences.
 MEM_TOTAL  2000 
Input Ideriv = 2
Curr. Ideriv = -1
Max.  Ideriv = 2

Checking the input file for inconsistencies... 	...done.

--------------------------------------------------------------
User input:
--------------------------------------------------------------
$molecule
2 5
C          4.08139       -0.25332       -0.08041
C          2.99127        0.45855        0.38057
C          1.63492       -0.00421        0.23636
C          0.46128        0.62576        0.62756
C         -0.81050       -0.02358        0.31986
C         -2.06392        0.49000        0.54601
H          3.16067        1.42443        0.86558
H          1.52539       -0.97547       -0.26541
H         -0.72882       -0.99256       -0.18541
C         -3.35874       -0.12119        0.16789
H         -2.13132        1.49867        0.97099
C         -3.66678       -1.44742        0.36969
C         -4.99400       -2.07085       -0.07476
C         -6.10603       -1.04630       -0.40333
H         -5.34287       -2.77330        0.70718
H         -4.80052       -2.70483       -0.96812
C         -5.51520        0.12358       -1.21830
H         -6.55536       -0.66877        0.53398
H         -6.92104       -1.53807       -0.96523
C         -4.38611        0.88837       -0.45443
H         -6.30439        0.84336       -1.50566
H         -5.09278       -0.27865       -2.16049
C         -2.73227       -2.44487        1.04708
H         -1.93852       -1.95386        1.62772
H         -2.24167       -3.11253        0.31047
H         -3.30500       -3.10310        1.72702
C         -5.01051        1.77350        0.67902
H         -5.58593        1.16401        1.39452
H         -5.68546        2.53158        0.24205
H         -4.23055        2.30968        1.24671
C         -3.67999        1.82988       -1.48704
H         -3.17682        1.24385       -2.27511
H         -2.92448        2.47373       -1.00879
H         -4.42853        2.48509       -1.96846
C          5.47892        0.14304       -0.00367
C          6.43863       -0.70853       -0.52884
C          7.87697       -0.52303       -0.56881
C          8.74702       -1.42547       -1.10523
H          8.28857        0.39820       -0.14149
H          6.07812       -1.64553       -0.97427
H          9.82494       -1.24993       -1.11654
H          8.40081       -2.36505       -1.54764
H          3.88753       -1.22010       -0.56427
C          0.44026        1.97326        1.33893
H          1.44875        2.34729        1.56257
H         -0.11225        1.90605        2.29355
H         -0.07159        2.73856        0.72605
C          5.81948        1.48125        0.64506
H          6.89967        1.67973        0.66075
H          5.45826        1.51808        1.68900
H          5.33394        2.31541        0.10633
Fe        -1.31457        1.70478       -0.16120
O          1.88883        1.77148       -0.16120
O          0.65343        1.74188       -0.16120
$end

$rem
BASIS = VDZ
METHOD  = BLYP
JOBTYPE = OPT
$end
--------------------------------------------------------------
 ----------------------------------------------------------------
             Standard Nuclear Orientation (Angstroms)
    I     Atom           X                Y                Z
 ----------------------------------------------------------------
    1      C       4.1646410638    -0.5927293640    -0.0126416572
    2      C       3.0648445828     0.1282232595     0.4096119238
    3      C       1.7139842318    -0.3541845732     0.2788921497
    4      C       0.5318957771     0.2809670920     0.6346726127
    5      C      -0.7315878645    -0.3943488224     0.3495347566
    6      C      -1.9913165331     0.1162871505     0.5452501623
    7      H       3.2218531126     1.1166602168     0.8514217669
    8      H       1.6169954548    -1.3481502454    -0.1790831346
    9      H      -0.6373805030    -1.3842727022    -0.1109729210
   10      C      -3.2777876305    -0.5243289871     0.1879129789
   11      H      -2.0711493933     1.1423789269     0.9238374178
   12      C      -3.5740394411    -1.8431309230     0.4477094626
   13      C      -4.8923886918    -2.4992929267     0.0244833128
   14      C      -6.0123952017    -1.5018446162    -0.3562448761
   15      H      -5.2390722568    -3.1692125781     0.8354053864
   16      H      -4.6873289197    -3.1709643165    -0.8382247922
   17      C      -5.4281448555    -0.3640529745    -1.2199329663
   18      H      -6.4710422555    -1.0869376681     0.5605274459
   19      H      -6.8191492723    -2.0266384391    -0.8998899405
   20      C      -4.3112221073     0.4457404733    -0.4851108820
   21      H      -6.2225973063     0.3340563037    -1.5439215668
   22      H      -4.9961347800    -0.8041242463    -2.1406143421
   23      C      -2.6339093778    -2.7995517029     1.1746808586
   24      H      -1.8485194351    -2.2748851149     1.7369621954
   25      H      -2.1323644698    -3.4948066303     0.4717400227
   26      H      -3.2042561725    -3.4321519460     1.8804614588
   27      C      -4.9510796466     1.3747958506     0.6036856163
   28      H      -5.5248078229     0.7924611498     1.3427720541
   29      H      -5.6307726994     2.1055612020     0.1291490795
   30      H      -4.1798429577     1.9438611220     1.1509124583
   31      C      -3.6081414968     1.3467439324    -1.5552512318
   32      H      -3.0945163872     0.7308358649    -2.3132169525
   33      H      -2.8618681401     2.0190821605    -1.1023730702
   34      H      -4.3601445759     1.9720036289    -2.0699542268
   35      C       5.5577355207    -0.1792812518     0.0539081041
   36      C       6.5288853157    -1.0439921404    -0.4268844007
   37      C       7.9655550734    -0.8460350302    -0.4671683467
   38      C       8.8476166553    -1.7629705211    -0.9574009891
   39      H       8.3655325209     0.0976310779    -0.0796196746
   40      H       6.1802580625    -2.0037150367    -0.8315266447
   41      H       9.9238149729    -1.5772926203    -0.9706158482
   42      H       8.5132955101    -2.7249906229    -1.3588299919
   43      H       3.9831760294    -1.5822593520    -0.4533985196
   44      C       0.4933960549     1.6589166068     1.2843019482
   45      H       1.4968092619     2.0527767985     1.4964374141
   46      H      -0.0641743307     1.6293030232     2.2378857827
   47      H      -0.0222179933     2.3905956100     0.6346217218
   48      C       5.8812604762     1.1901963157     0.6433998562
   49      H       6.9593412816     1.4000309245     0.6561331416
   50      H       5.5134103836     1.2704651676     1.6825775512
   51      H       5.3908335062     1.9942723102     0.0648281733
   52      Fe     -1.2496458866     1.3053871744    -0.2119338578
   53      O       1.9528893464     1.4042186176    -0.1970719063
   54      O       0.7178608033     1.3622311840    -0.2026282811
 ----------------------------------------------------------------
 Molecular Point Group                 C1    NOp =  1
 Largest Abelian Subgroup              C1    NOp =  1
 Nuclear Repulsion Energy =  2527.8073780657 hartrees
 There are      100 alpha and       96 beta electrons
 Requested basis set is VDZ
 There are 184 shells and 288 basis functions

 Total QAlloc Memory Limit   2000 MB
 Mega-Array Size       188 MB
 MEM_STATIC part       192 MB
 A cutoff of  1.0D-11 yielded  10661 shell pairs
 There are     26869 function pairs (     27299 Cartesian)
 
 -------------------------------------------------------
 OpenMP Integral Computing Module                       
 Release: version 1.0, May 2013, Q-Chem Inc. Pittsburgh 
 -------------------------------------------------------
 Integral Job Info:
 Integral job number is                      11
 Integral operator is                         1
 short-range coefficients                     0
 long-range coefficients              100000000
 Omega coefficients                           0
 if combine SR and LR in K                    0
 Integral screening is                        0
 Integral computing path is                   2
 max size of driver memory is            800000
 size of driver memory is                593474
 size of scratch memory is             29634545
 max col of scratch BK array               1296
 max len of scratch array in speh3          155
 max len of scratch index in speh4           18
 max int batch size is                      520
 min int batch size is                       52
 fixed nKL is                                45
 max L of basis functions is                  2
 order of int derivative is                   0
 number of shells is                        184
 number of basis is                         290
 number of cartesian basis is               290
 number of contracted shell pairs         10661
 number of primitive shell pairs          30049
 maxK2 (contraction) of shell pair           36
 max number of K2 of shell pair               1
 max number of CS2 of shell pair           2581
 max number of PS2 of shell pair           6115
 mem total for path MDJ                  606392
 -------------------------------------------------------
 Smallest overlap matrix eigenvalue = 6.63E-04

 Scale SEOQF with 1.000000e-02/1.000000e-01/1.000000e-01

 Standard Electronic Orientation quadrupole field applied
 Nucleus-field energy     =     0.0000000289 hartrees
 Guess from superposition of atomic densities
 Warning:  Energy on first SCF cycle will be non-variational
 SAD guess density has 198.000000 electrons

 -----------------------------------------------------------------------
  General SCF calculation program by
  Eric Jon Sundstrom, Paul Horn, Yuezhi Mao, Dmitri Zuev, Alec White,
  David Stuck, Shaama M.S., Shane Yost, Joonho Lee, David Small,
  Daniel Levine, Susi Lehtola, Hugh Burton, Evgeny Epifanovsky
 -----------------------------------------------------------------------
 Exchange:  B88      Correlation:  LYP
 Using SG-1 standard quadrature grid
 using 8 threads for integral computing
 -------------------------------------------------------
 OpenMP Integral computing Module                
 Release: version 1.0, May 2013, Q-Chem Inc. Pittsburgh 
 -------------------------------------------------------
 -------------------------------------------------------
 OpenMP BLAS3 based DFT computing Module                
 Release: version 1.0, May 2013, Q-Chem Inc. Pittsburgh 
 -------------------------------------------------------
 A unrestricted SCF calculation will be
 performed using DIIS
 SCF converges when DIIS error is below 1.0e-08
 ---------------------------------------
  Cycle       Energy         DIIS error
 ---------------------------------------
    1   -2236.1233796930      3.31e-02  
    2   -2228.5295154134      4.33e-03  
    3   -2205.4388646602      1.98e-02  
    4   -2221.6987855367      1.32e-02  
    5   -2226.0378711592      9.39e-03  
    6   -2228.4395325745      4.67e-03  
    7   -2229.3555547334      1.64e-03  
    8   -2228.6067935141      4.22e-03  
    9   -2228.9573250072      3.44e-03  
   10   -2228.9522347972      3.37e-03  
   11   -2229.0276747255      3.27e-03  
   12   -2228.9846738494      3.40e-03  
   13   -2228.9696607613      3.45e-03  
   14   -2229.0040565375      3.36e-03  
   15   -2229.1006652858      3.07e-03  
   16   -2229.1691761480      2.83e-03  
   17   -2229.1440358661      2.89e-03  
   18   -2229.3619728372      1.72e-03  
   19   -2229.3895085450      1.61e-03  
   20   -2229.5060491529      4.62e-04  
   21   -2229.5076706762      4.96e-04  
   22   -2229.5207851666      8.04e-05  
   23   -2229.5207330972      1.10e-04  
   24   -2229.5212767658      3.99e-05  
   25   -2229.5213611832      2.22e-05  
   26   -2229.5214054912      1.33e-05  
   27   -2229.5214293539      9.68e-06  
   28   -2229.5214405290      4.51e-06  
   29   -2229.5214473845      7.25e-06  
   30   -2229.5214524292      4.92e-06  
   31   -2229.5214550846      5.31e-06  
   32   -2229.5214581577      4.58e-06  
   33   -2229.5214620520      4.30e-06  
   34   -2229.5214647296      1.94e-06  
   35   -2229.5214651854      2.33e-06  
   36   -2229.5214657529      6.85e-07  
   37   -2229.5214658007      2.75e-07  
   38   -2229.5214658015      1.80e-07  
   39   -2229.5214658065      8.27e-08  
   40   -2229.5214658062      8.93e-08  
   41   -2229.5214658070      3.77e-08  
   42   -2229.5214658071      1.18e-08  
   43   -2229.5214658071      5.29e-09  Convergence criterion met
 ---------------------------------------
 SCF time:   CPU 1432.27s  wall 179.00s 
<S^2> =          6.053404170
 SCF   energy in the final basis set =    -2229.5214658071
 Total energy in the final basis set =    -2229.5214658071
 
 --------------------------------------------------------------
 
                    Orbital Energies (a.u.)
 --------------------------------------------------------------
 
 Alpha MOs
 -- Occupied --
******* -29.803 -25.762 -25.759 -25.749 -19.179 -19.077 -10.275
-10.228 -10.222 -10.215 -10.206 -10.204 -10.192 -10.182 -10.178
-10.170 -10.165 -10.163 -10.161 -10.158 -10.148 -10.132 -10.122
-10.118 -10.107 -10.106 -10.099  -3.576  -2.416  -2.401  -2.378
 -1.522  -1.176  -1.052  -1.020  -0.986  -0.966  -0.956  -0.929
 -0.918  -0.898  -0.882  -0.855  -0.842  -0.835  -0.829  -0.825
 -0.812  -0.799  -0.781  -0.761  -0.742  -0.738  -0.722  -0.714
 -0.703  -0.694  -0.677  -0.670  -0.661  -0.656  -0.645  -0.636
 -0.627  -0.622  -0.618  -0.606  -0.600  -0.593  -0.589  -0.583
 -0.582  -0.573  -0.567  -0.559  -0.555  -0.553  -0.548  -0.542
 -0.540  -0.532  -0.523  -0.521  -0.516  -0.510  -0.508  -0.508
 -0.505  -0.495  -0.481  -0.474  -0.468  -0.468  -0.462  -0.459
 -0.454  -0.438  -0.413  -0.410
 -- Virtual --
 -0.390  -0.319  -0.303  -0.277  -0.232  -0.222  -0.201  -0.187
 -0.185  -0.179  -0.168  -0.161  -0.154  -0.146  -0.138  -0.136
 -0.127  -0.123  -0.120  -0.116  -0.111  -0.110  -0.106  -0.096
 -0.088  -0.086  -0.081  -0.080  -0.077  -0.074  -0.070  -0.064
 -0.063  -0.060  -0.056  -0.051  -0.049  -0.041  -0.033  -0.032
 -0.028  -0.024  -0.018  -0.016  -0.012  -0.003   0.001   0.009
  0.025   0.030   0.037   0.049   0.055   0.063   0.082   0.094
  0.097   0.100   0.106   0.126   0.127   0.132   0.144   0.155
  0.168   0.175   0.182   0.185   0.186   0.192   0.199   0.202
  0.205   0.213   0.221   0.230   0.237   0.241   0.243   0.249
  0.251   0.253   0.264   0.273   0.285   0.290   0.299   0.309
  0.312   0.326   0.331   0.348   0.352   0.355   0.357   0.358
  0.363   0.363   0.367   0.373   0.375   0.382   0.388   0.390
  0.395   0.404   0.408   0.412   0.415   0.420   0.422   0.425
  0.432   0.436   0.439   0.443   0.445   0.447   0.449   0.452
  0.455   0.459   0.464   0.465   0.466   0.469   0.478   0.482
  0.485   0.488   0.488   0.498   0.498   0.504   0.512   0.515
  0.518   0.523   0.527   0.532   0.553   0.556   0.573   0.584
  0.595   0.609   0.620   0.625   0.633   0.648   0.656   0.673
  0.681   0.690   0.722   0.739   0.751   0.775   0.782   0.795
  0.813   0.827   0.844   0.848   0.849   0.862   0.871   0.874
  0.888   0.900   0.921   0.932   0.942   0.949   0.986   0.994
  1.004   1.025   1.047   1.052   1.073   1.088   1.104   1.164
  1.177   1.191   1.287   1.610
 
 Beta MOs
 -- Occupied --
******* -29.759 -25.729 -25.724 -25.719 -19.175 -19.072 -10.274
-10.228 -10.221 -10.214 -10.204 -10.203 -10.191 -10.180 -10.177
-10.168 -10.164 -10.161 -10.159 -10.158 -10.148 -10.132 -10.122
-10.118 -10.107 -10.106 -10.099  -3.474  -2.318  -2.296  -2.284
 -1.515  -1.168  -1.047  -1.015  -0.982  -0.963  -0.951  -0.925
 -0.916  -0.893  -0.879  -0.852  -0.839  -0.831  -0.826  -0.820
 -0.809  -0.798  -0.774  -0.756  -0.738  -0.733  -0.718  -0.711
 -0.700  -0.691  -0.672  -0.666  -0.656  -0.650  -0.640  -0.632
 -0.623  -0.619  -0.616  -0.604  -0.596  -0.590  -0.586  -0.580
 -0.579  -0.570  -0.563  -0.555  -0.553  -0.550  -0.546  -0.540
 -0.533  -0.531  -0.522  -0.514  -0.511  -0.507  -0.505  -0.499
 -0.479  -0.472  -0.467  -0.463  -0.457  -0.440  -0.433  -0.417
 -- Virtual --
 -0.406  -0.391  -0.383  -0.376  -0.351  -0.304  -0.291  -0.260
 -0.224  -0.214  -0.197  -0.182  -0.177  -0.176  -0.161  -0.157
 -0.151  -0.144  -0.135  -0.131  -0.126  -0.120  -0.119  -0.114
 -0.111  -0.108  -0.104  -0.095  -0.086  -0.082  -0.079  -0.077
 -0.074  -0.072  -0.068  -0.062  -0.062  -0.056  -0.054  -0.049
 -0.048  -0.038  -0.032  -0.031  -0.027  -0.022  -0.016  -0.015
 -0.011  -0.002   0.003   0.011   0.026   0.032   0.038   0.051
  0.058   0.065   0.086   0.098   0.099   0.103   0.109   0.129
  0.131   0.135   0.146   0.157   0.171   0.177   0.184   0.187
  0.190   0.195   0.201   0.206   0.208   0.215   0.222   0.232
  0.241   0.243   0.250   0.252   0.254   0.257   0.267   0.275
  0.290   0.294   0.300   0.314   0.318   0.329   0.336   0.350
  0.353   0.358   0.359   0.360   0.365   0.365   0.370   0.376
  0.377   0.384   0.391   0.392   0.398   0.406   0.412   0.415
  0.419   0.423   0.424   0.427   0.433   0.439   0.442   0.445
  0.446   0.448   0.450   0.454   0.457   0.460   0.465   0.467
  0.467   0.470   0.479   0.483   0.487   0.489   0.489   0.498
  0.500   0.505   0.513   0.516   0.519   0.524   0.528   0.533
  0.555   0.556   0.575   0.586   0.597   0.612   0.622   0.627
  0.637   0.650   0.660   0.678   0.692   0.697   0.724   0.748
  0.755   0.778   0.787   0.801   0.819   0.830   0.849   0.850
  0.859   0.867   0.876   0.879   0.897   0.907   0.927   0.938
  0.945   0.970   0.996   1.003   1.009   1.035   1.049   1.055
  1.077   1.100   1.118   1.172   1.186   1.209   1.312   1.616
 --------------------------------------------------------------
 
          Ground-State Mulliken Net Atomic Charges

     Atom                 Charge (a.u.)    Spin (a.u.)
  --------------------------------------------------------
      1 C                    -0.083514       0.074132
      2 C                     0.159503       0.131056
      3 C                    -0.071971      -0.011769
      4 C                    -0.013441       0.057731
      5 C                    -0.150118       0.020155
      6 C                    -0.358389       0.149356
      7 H                     0.130033       0.004506
      8 H                     0.100383       0.004787
      9 H                     0.114377       0.029883
     10 C                     0.206973       0.011013
     11 H                    -0.005807       0.005724
     12 C                    -0.117285       0.090828
     13 C                    -0.093952      -0.004007
     14 C                    -0.062317       0.001627
     15 H                     0.104497       0.004250
     16 H                     0.111742       0.007054
     17 C                    -0.056647       0.001553
     18 H                     0.087521       0.000475
     19 H                     0.096822       0.000366
     20 C                    -0.248653      -0.000027
     21 H                     0.088240       0.000191
     22 H                     0.067789       0.000016
     23 C                    -0.160260      -0.005642
     24 H                     0.092610       0.001109
     25 H                     0.119028       0.005015
     26 H                     0.126277       0.004559
     27 C                    -0.122726       0.003141
     28 H                     0.107588      -0.000082
     29 H                     0.108741       0.000428
     30 H                     0.069674      -0.000121
     31 C                    -0.157821       0.027081
     32 H                     0.120115       0.000199
     33 H                     0.017888       0.002493
     34 H                     0.144498       0.006766
     35 C                     0.034471       0.059278
     36 C                    -0.046774       0.186807
     37 C                     0.002912      -0.038799
     38 C                    -0.044428       0.263626
     39 H                     0.100714       0.000833
     40 H                     0.081975      -0.009143
     41 H                     0.147768      -0.013595
     42 H                     0.131904      -0.012720
     43 H                     0.072577      -0.003901
     44 C                     0.032073       0.021299
     45 H                     0.164453       0.003899
     46 H                     0.115778       0.021729
     47 H                     0.107958       0.056685
     48 C                    -0.141666      -0.006561
     49 H                     0.116142       0.000304
     50 H                     0.124234       0.005914
     51 H                     0.125300       0.004743
     52 Fe                    0.859640       2.546268
     53 O                    -0.185008       0.195247
     54 O                    -0.271421       0.094240
  --------------------------------------------------------
  Sum of atomic charges =     2.000000
  Sum of spin   charges =     4.000000

 -----------------------------------------------------------------
                    Cartesian Multipole Moments
 -----------------------------------------------------------------
    Charge (ESU x 10^10)
                 9.6064
    Dipole Moment (Debye)
         X      10.7864      Y      -1.8827      Z      -0.7696
       Tot      10.9765
    Quadrupole Moments (Debye-Ang)
        XX      94.2761     XY     -14.9356     YY    -117.8016
        XZ      -3.7215     YZ       4.3648     ZZ    -144.9622
    Octopole Moments (Debye-Ang^2)
       XXX    1133.3026    XXY    -222.7807    XYY      -3.6986
       YYY       7.4978    XXZ    -129.2679    XYZ      58.5155
       YYZ      -4.9341    XZZ     -14.0728    YZZ      14.0854
       ZZZ     -10.2098
    Hexadecapole Moments (Debye-Ang^3)
      XXXX   -3328.2097   XXXY   -1511.3169   XXYY   -2421.0076
      XYYY     -22.6354   YYYY   -1717.1822   XXXZ    -837.3043
      XXYZ     282.8800   XYYZ     -65.9702   YYYZ      -6.7722
      XXZZ   -2862.8901   XYZZ     -21.0565   YYZZ    -394.9039
      XZZZ      27.3322   YZZZ      -9.2748   ZZZZ    -671.0747
 -----------------------------------------------------------------
 Calculating analytic gradient of the SCF energy
 Gradient of SCF Energy
            1           2           3           4           5           6
    1  -0.0368290  -0.0210406  -0.1045003   0.0618758  -0.0456283   0.1410881
    2   0.0218923   0.0502922   0.1273319   0.0790169   0.0848740   0.1645052
    3   0.0168668  -0.0516097  -0.0330011  -0.0856494  -0.0081080  -0.0729692
            7           8           9          10          11          12
    1  -0.0231589   0.0005652  -0.0015558   0.0022780   0.0573664   0.0004554
    2   0.0148915   0.0086003   0.0026700  -0.0129968  -0.0317949   0.0232548
    3  -0.0216790  -0.0000196   0.0021730  -0.0010368  -0.0930289  -0.0042575
           13          14          15          16          17          18
    1   0.0018570  -0.0046201  -0.0000179  -0.0033528  -0.0019309   0.0030736
    2  -0.0099205  -0.0020533   0.0030782   0.0030289   0.0021359  -0.0010248
    3  -0.0023811   0.0007007  -0.0025960   0.0034471  -0.0012372  -0.0039815
           19          20          21          22          23          24
    1   0.0024628   0.0016007   0.0029575  -0.0014705   0.0023276  -0.0042808
    2   0.0016149  -0.0033075  -0.0028844   0.0019815  -0.0076101  -0.0015296
    3   0.0020469  -0.0029173   0.0009575   0.0050368   0.0017665  -0.0051339
           25          26          27          28          29          30
    1  -0.0007243   0.0014961  -0.0019609   0.0028015   0.0033177  -0.0043269
    2   0.0041319   0.0025108   0.0037070   0.0023344  -0.0030446  -0.0045538
    3   0.0047845  -0.0025742   0.0034860  -0.0035853   0.0019333  -0.0048090
           31          32          33          34          35          36
    1   0.0108995  -0.0011035  -0.0089824  -0.0011290   0.0352512  -0.0304655
    2   0.0230515   0.0034058  -0.0199809  -0.0071473  -0.0271985   0.0218150
    3   0.0033517   0.0070606  -0.0098356   0.0013580  -0.0125963   0.0115389
           37          38          39          40          41          42
    1   0.0238880  -0.0054845  -0.0018830   0.0016367  -0.0076314   0.0021873
    2  -0.0170803   0.0131644  -0.0043294   0.0050962  -0.0021458   0.0070818
    3  -0.0100213   0.0065526  -0.0018287   0.0022226  -0.0003603   0.0029839
           43          44          45          46          47          48
    1   0.0000106   0.0568948   0.0019935   0.0063492   0.0391780   0.0005058
    2   0.0050550  -0.0478391  -0.0048915  -0.0005692  -0.0628489   0.0057196
    3   0.0023307  -0.2491855  -0.0082291  -0.0190542  -0.0471974   0.0031177
           49          50          51          52          53          54
    1  -0.0048883   0.0008560   0.0014601  -0.0541854  -0.1791867   0.0837035
    2  -0.0018832  -0.0001342  -0.0042108  -0.2046404  -0.1543059  -0.0463164
    3  -0.0006668  -0.0057227   0.0033357   0.2131687   0.1554432   0.3096093
 Max gradient component =       3.096E-01
 RMS gradient           =       5.491E-02
 Gradient time:  CPU 62.70 s  wall 8.26 s
 Geometry Optimization Parameters
   NAtoms,    NIC,     NZ,  NCons,   NDum,   NFix, NCnnct, MaxDiis
       54     669       0       0       0       0       0       0


** GEOMETRY OPTIMIZATION IN DELOCALIZED INTERNAL COORDINATES **
   Searching for a Minimum

   Optimization Cycle:   1

                       Coordinates (Angstroms)
     ATOM                X               Y               Z
      1  C         4.1646410638   -0.5927293640   -0.0126416572
      2  C         3.0648445828    0.1282232595    0.4096119238
      3  C         1.7139842318   -0.3541845732    0.2788921497
      4  C         0.5318957771    0.2809670920    0.6346726127
      5  C        -0.7315878645   -0.3943488224    0.3495347566
      6  C        -1.9913165331    0.1162871505    0.5452501623
      7  H         3.2218531126    1.1166602168    0.8514217669
      8  H         1.6169954548   -1.3481502454   -0.1790831346
      9  H        -0.6373805030   -1.3842727022   -0.1109729210
     10  C        -3.2777876305   -0.5243289871    0.1879129789
     11  H        -2.0711493933    1.1423789269    0.9238374178
     12  C        -3.5740394411   -1.8431309230    0.4477094626
     13  C        -4.8923886918   -2.4992929267    0.0244833128
     14  C        -6.0123952017   -1.5018446162   -0.3562448761
     15  H        -5.2390722568   -3.1692125781    0.8354053864
     16  H        -4.6873289197   -3.1709643165   -0.8382247922
     17  C        -5.4281448555   -0.3640529745   -1.2199329663
     18  H        -6.4710422555   -1.0869376681    0.5605274459
     19  H        -6.8191492723   -2.0266384391   -0.8998899405
     20  C        -4.3112221073    0.4457404733   -0.4851108820
     21  H        -6.2225973063    0.3340563037   -1.5439215668
     22  H        -4.9961347800   -0.8041242463   -2.1406143421
     23  C        -2.6339093778   -2.7995517029    1.1746808586
     24  H        -1.8485194351   -2.2748851149    1.7369621954
     25  H        -2.1323644698   -3.4948066303    0.4717400227
     26  H        -3.2042561725   -3.4321519460    1.8804614588
     27  C        -4.9510796466    1.3747958506    0.6036856163
     28  H        -5.5248078229    0.7924611498    1.3427720541
     29  H        -5.6307726994    2.1055612020    0.1291490795
     30  H        -4.1798429577    1.9438611220    1.1509124583
     31  C        -3.6081414968    1.3467439324   -1.5552512318
     32  H        -3.0945163872    0.7308358649   -2.3132169525
     33  H        -2.8618681401    2.0190821605   -1.1023730702
     34  H        -4.3601445759    1.9720036289   -2.0699542268
     35  C         5.5577355207   -0.1792812518    0.0539081041
     36  C         6.5288853157   -1.0439921404   -0.4268844007
     37  C         7.9655550734   -0.8460350302   -0.4671683467
     38  C         8.8476166553   -1.7629705211   -0.9574009891
     39  H         8.3655325209    0.0976310779   -0.0796196746
     40  H         6.1802580625   -2.0037150367   -0.8315266447
     41  H         9.9238149729   -1.5772926203   -0.9706158482
     42  H         8.5132955101   -2.7249906229   -1.3588299919
     43  H         3.9831760294   -1.5822593520   -0.4533985196
     44  C         0.4933960549    1.6589166068    1.2843019482
     45  H         1.4968092619    2.0527767985    1.4964374141
     46  H        -0.0641743307    1.6293030232    2.2378857827
     47  H        -0.0222179933    2.3905956100    0.6346217218
     48  C         5.8812604762    1.1901963157    0.6433998562
     49  H         6.9593412816    1.4000309245    0.6561331416
     50  H         5.5134103836    1.2704651676    1.6825775512
     51  H         5.3908335062    1.9942723102    0.0648281733
     52  Fe       -1.2496458866    1.3053871744   -0.2119338578
     53  O         1.9528893464    1.4042186176   -0.1970719063
     54  O         0.7178608033    1.3622311840   -0.2026282811
   Point Group: c1    Number of degrees of freedom:   156


   Energy is  -2229.521465807


 Attempting to Generate Delocalized Internal Coordinates

156 Hessian modes will be used to form the next step
  Hessian Eigenvalues:
     0.002000    0.004190    0.005409    0.005784    0.005796    0.005809
     0.008449    0.008586    0.009724    0.010060    0.011266    0.012265
     0.013701    0.015174    0.015402    0.015687    0.015713    0.020011
     0.020398    0.021084    0.021125    0.021464    0.023921    0.024210
     0.024898    0.027066    0.027235    0.027235    0.027780    0.029101
     0.029498    0.032698    0.035978    0.040323    0.041462    0.041685
     0.043417    0.044454    0.046383    0.047993    0.049690    0.051011
     0.051430    0.052644    0.053476    0.053580    0.054795    0.057186
     0.058465    0.060656    0.065237    0.065501    0.068588    0.069080
     0.070986    0.071513    0.071786    0.071903    0.073906    0.078122
     0.078673    0.083031    0.083353    0.085476    0.092226    0.097054
     0.100152    0.101225    0.107119    0.110664    0.114502    0.117846
     0.119745    0.121836    0.124823    0.126091    0.137522    0.144489
     0.147046    0.149703    0.153805    0.157726    0.159998    0.160000
     0.160000    0.160000    0.160000    0.160000    0.160000    0.160000
     0.160000    0.160000    0.160000    0.160000    0.160000    0.160000
     0.183186    0.196913    0.202240    0.220000    0.220000    0.220001
     0.226079    0.233287    0.246129    0.249997    0.249997    0.249997
     0.252916    0.259848    0.261905    0.271900    0.275430    0.287385
     0.298279    0.298453    0.301309    0.314592    0.323461    0.327459
     0.327989    0.328652    0.330093    0.330153    0.330275    0.330399
     0.330968    0.330972    0.331047    0.331179    0.331273    0.331323
     0.332790    0.333003    0.334558    0.337414    0.337691    0.338276
     0.338352    0.338613    0.338656    0.338667    0.341450    0.341558
     0.342735    0.343534    0.344209    0.345621    0.371593    0.376390
     0.381399    0.479562    0.480898    0.488895    0.522464    0.721233

 Minimum Search - Taking Simple RFO Step
 Searching for Lamda that Minimizes Along All modes
 Value Taken    Lamda =  -0.31790812
 Calculated Step too Large.  Step scaled by  0.408397
 Step Taken.  Stepsize is  0.300000

                             Maximum     Tolerance    Cnvgd?
         Gradient           0.112899      0.000300      NO
         Displacement       0.070521      0.001200      NO
         Energy change     *********      0.000001      NO


 New Cartesian Coordinates Obtained by Inverse Iteration

 Displacement from previous Coordinates is:  0.775283
 ----------------------------------------------------------------
             Standard Nuclear Orientation (Angstroms)
    I     Atom           X                Y                Z
 ----------------------------------------------------------------
    1      C       4.1987068888    -0.5809376019    -0.0114864271
    2      C       3.1055108497     0.1619534980     0.4199872629
    3      C       1.7470232084    -0.3083808241     0.2935607609
    4      C       0.5260514466     0.3309890211     0.6551554785
    5      C      -0.7357755248    -0.3673002433     0.3638907282
    6      C      -2.0237949912     0.1230784658     0.5621368172
    7      H       3.2912759583     1.1426830901     0.8666813892
    8      H       1.6504228731    -1.3055496255    -0.1637173987
    9      H      -0.6253178436    -1.3554795135    -0.0994404803
   10      C      -3.2973502507    -0.5319344869     0.1947728937
   11      H      -2.1248044933     1.1655111473     0.9532433936
   12      C      -3.5794473153    -1.8589030722     0.4488059506
   13      C      -4.8867759000    -2.5241390974     0.0099758799
   14      C      -6.0140594549    -1.5364504222    -0.3790017595
   15      H      -5.2342298100    -3.2020874674     0.8156071855
   16      H      -4.6643074322    -3.1911171007    -0.8542757415
   17      C      -5.4355015995    -0.3881685651    -1.2342910976
   18      H      -6.4874702230    -1.1300322910     0.5360682237
   19      H      -6.8100101566    -2.0689463166    -0.9333907485
   20      C      -4.3351490792     0.4337725741    -0.4866546025
   21      H      -6.2364706289     0.3021294818    -1.5637221901
   22      H      -4.9893313522    -0.8208075824    -2.1539761363
   23      C      -2.6345450820    -2.8065705446     1.1808638563
   24      H      -1.8580983127    -2.2763823198     1.7544275016
   25      H      -2.1197785069    -3.4943212971     0.4769661425
   26      H      -3.2042683743    -3.4496003358     1.8797091355
   27      C      -4.9938429910     1.3532185511     0.6006175864
   28      H      -5.5678818384     0.7616708951     1.3346447076
   29      H      -5.6790953338     2.0786020126     0.1220426376
   30      H      -4.2328679063     1.9313335856     1.1578307240
   31      C      -3.6343062802     1.3508151246    -1.5556579962
   32      H      -3.1080112593     0.7423843828    -2.3144954886
   33      H      -2.8962213298     2.0434417491    -1.0983530333
   34      H      -4.3909774929     1.9696455973    -2.0740686758
   35      C       5.5927074868    -0.1850625202     0.0509018210
   36      C       6.5520663770    -1.0716535753    -0.4379363846
   37      C       7.9881270296    -0.8956885563    -0.4838956460
   38      C       8.8526832039    -1.8336801244    -0.9815744443
   39      H       8.4070208544     0.0422140069    -0.0976458522
   40      H       6.1856919882    -2.0272250268    -0.8418995363
   41      H       9.9345784657    -1.6675462303    -1.0007921721
   42      H       8.4971567885    -2.7914685183    -1.3820311996
   43      H       4.0022602916    -1.5689827810    -0.4536540537
   44      C       0.4529272274     1.7328909978     1.3264003275
   45      H       1.4462657707     2.1448496827     1.5536352976
   46      H      -0.1174747276     1.6893042131     2.2794461501
   47      H      -0.0758722976     2.4698129051     0.6685356093
   48      C       5.9413086419     1.1790203445     0.6394075452
   49      H       7.0242158132     1.3725050644     0.6475327294
   50      H       5.5796582867     1.2648163530     1.6823171607
   51      H       5.4608864115     1.9927255276     0.0624159917
   52      Fe     -1.2805605420     1.3503019396    -0.2051633907
   53      O       1.9848241326     1.4918236141    -0.2122624196
   54      O       0.7091149285     1.4364600073    -0.2089882207
 ----------------------------------------------------------------
 Molecular Point Group                 C1    NOp =  1
 Largest Abelian Subgroup              C1    NOp =  1
 Nuclear Repulsion Energy =  2507.0622038447 hartrees
 There are      100 alpha and       96 beta electrons
 Applying Cartesian multipole field
    Component          Value
    ---------          -----
     (2,0,0)        1.00000E-12
     (0,2,0)        2.00000E-11
     (0,0,2)       -3.00000E-11
 Nucleus-field energy     =     0.0000000298 hartrees
 Requested basis set is VDZ
 There are 184 shells and 288 basis functions
 A cutoff of  1.0D-11 yielded  10606 shell pairs
 There are     26718 function pairs (     27143 Cartesian)
 Smallest overlap matrix eigenvalue = 7.77E-04
 Guess MOs from SCF MO coefficient file

 -----------------------------------------------------------------------
  General SCF calculation program by
  Eric Jon Sundstrom, Paul Horn, Yuezhi Mao, Dmitri Zuev, Alec White,
  David Stuck, Shaama M.S., Shane Yost, Joonho Lee, David Small,
  Daniel Levine, Susi Lehtola, Hugh Burton, Evgeny Epifanovsky
 -----------------------------------------------------------------------
 Exchange:  B88      Correlation:  LYP
 Using SG-1 standard quadrature grid
 using 8 threads for integral computing
 -------------------------------------------------------
 OpenMP Integral computing Module                
 Release: version 1.0, May 2013, Q-Chem Inc. Pittsburgh 
 -------------------------------------------------------
 -------------------------------------------------------
 OpenMP BLAS3 based DFT computing Module                
 Release: version 1.0, May 2013, Q-Chem Inc. Pittsburgh 
 -------------------------------------------------------
 A unrestricted SCF calculation will be
 performed using DIIS
 SCF converges when DIIS error is below 1.0e-08
 ---------------------------------------
  Cycle       Energy         DIIS error
 ---------------------------------------
    1   -2229.6310759335      3.30e-04  
    2   -2229.6303754536      4.46e-04  
    3   -2229.3731932774      2.63e-03  
    4   -2229.6267260044      4.16e-04  
    5   -2229.6325285301      2.87e-04  
    6   -2229.6360886004      1.78e-04  
    7   -2229.6373738067      5.13e-05  
    8   -2229.6374786282      1.47e-05  
    9   -2229.6374863310      8.94e-06  
   10   -2229.6374904250      6.92e-06  
   11   -2229.6374916160      6.04e-06  
   12   -2229.6374926623      4.10e-06  
   13   -2229.6374936674      1.68e-06  
   14   -2229.6374940741      1.33e-06  
   15   -2229.6374942771      1.48e-06  
   16   -2229.6374945342      1.25e-06  
   17   -2229.6374949020      6.81e-07  
   18   -2229.6374953400      6.52e-07  
   19   -2229.6374955708      5.71e-07  
   20   -2229.6374956196      5.42e-07  
   21   -2229.6374956432      1.66e-07  
   22   -2229.6374956440      1.44e-07  
   23   -2229.6374956459      6.14e-08  
   24   -2229.6374956467      1.97e-08  
   25   -2229.6374956467      2.90e-08  
   26   -2229.6374956467      3.08e-08  
   27   -2229.6374956467      9.22e-09  Convergence criterion met
 ---------------------------------------
 SCF time:   CPU 899.62s  wall 113.00s 
<S^2> =          6.048619094
 SCF   energy in the final basis set =    -2229.6374956467
 Total energy in the final basis set =    -2229.6374956467
 
 --------------------------------------------------------------
 
                    Orbital Energies (a.u.)
 --------------------------------------------------------------
 
 Alpha MOs
 -- Occupied --
******* -29.803 -25.764 -25.759 -25.750 -19.160 -19.070 -10.273
-10.230 -10.215 -10.215 -10.205 -10.204 -10.193 -10.185 -10.182
-10.170 -10.166 -10.165 -10.163 -10.159 -10.149 -10.133 -10.121
-10.118 -10.107 -10.106 -10.099  -3.573  -2.412  -2.398  -2.376
 -1.462  -1.143  -1.034  -1.009  -0.982  -0.961  -0.941  -0.922
 -0.916  -0.894  -0.877  -0.850  -0.839  -0.826  -0.818  -0.815
 -0.808  -0.797  -0.768  -0.756  -0.739  -0.725  -0.715  -0.710
 -0.703  -0.693  -0.673  -0.662  -0.655  -0.646  -0.642  -0.633
 -0.624  -0.620  -0.615  -0.605  -0.598  -0.593  -0.589  -0.582
 -0.580  -0.572  -0.565  -0.557  -0.555  -0.552  -0.547  -0.541
 -0.539  -0.532  -0.525  -0.521  -0.514  -0.509  -0.507  -0.506
 -0.504  -0.493  -0.479  -0.473  -0.468  -0.467  -0.461  -0.458
 -0.454  -0.436  -0.413  -0.411
 -- Virtual --
 -0.390  -0.321  -0.304  -0.277  -0.235  -0.223  -0.201  -0.190
 -0.186  -0.177  -0.170  -0.163  -0.156  -0.152  -0.141  -0.137
 -0.127  -0.126  -0.121  -0.117  -0.112  -0.111  -0.108  -0.096
 -0.090  -0.087  -0.083  -0.080  -0.078  -0.075  -0.073  -0.067
 -0.064  -0.063  -0.057  -0.053  -0.050  -0.048  -0.034  -0.033
 -0.028  -0.026  -0.018  -0.018  -0.013  -0.005  -0.002   0.009
  0.025   0.029   0.037   0.048   0.052   0.061   0.079   0.088
  0.092   0.099   0.104   0.123   0.127   0.131   0.142   0.153
  0.171   0.177   0.180   0.186   0.187   0.193   0.198   0.203
  0.204   0.212   0.220   0.230   0.237   0.240   0.242   0.248
  0.250   0.252   0.263   0.274   0.282   0.288   0.297   0.309
  0.312   0.324   0.331   0.348   0.351   0.355   0.357   0.357
  0.363   0.364   0.368   0.374   0.375   0.380   0.387   0.388
  0.394   0.404   0.406   0.413   0.414   0.417   0.420   0.424
  0.430   0.431   0.437   0.440   0.443   0.445   0.446   0.450
  0.454   0.457   0.462   0.464   0.465   0.467   0.475   0.481
  0.483   0.486   0.487   0.495   0.497   0.501   0.510   0.512
  0.516   0.522   0.526   0.532   0.551   0.555   0.574   0.582
  0.595   0.607   0.620   0.625   0.631   0.646   0.655   0.671
  0.679   0.691   0.717   0.739   0.749   0.772   0.778   0.796
  0.811   0.826   0.843   0.848   0.848   0.859   0.868   0.871
  0.887   0.896   0.916   0.928   0.942   0.944   0.976   0.984
  1.000   1.021   1.045   1.049   1.070   1.084   1.101   1.152
  1.167   1.186   1.293   1.573
 
 Beta MOs
 -- Occupied --
******* -29.759 -25.729 -25.724 -25.719 -19.156 -19.064 -10.272
-10.230 -10.214 -10.214 -10.204 -10.203 -10.192 -10.183 -10.181
-10.169 -10.164 -10.164 -10.163 -10.159 -10.149 -10.133 -10.121
-10.118 -10.107 -10.106 -10.099  -3.469  -2.311  -2.291  -2.280
 -1.454  -1.133  -1.029  -1.004  -0.979  -0.958  -0.937  -0.918
 -0.915  -0.889  -0.875  -0.847  -0.837  -0.824  -0.813  -0.812
 -0.803  -0.796  -0.761  -0.750  -0.735  -0.721  -0.709  -0.707
 -0.700  -0.690  -0.669  -0.656  -0.653  -0.639  -0.636  -0.630
 -0.620  -0.617  -0.612  -0.603  -0.595  -0.590  -0.587  -0.579
 -0.578  -0.569  -0.561  -0.554  -0.554  -0.548  -0.546  -0.539
 -0.531  -0.530  -0.524  -0.513  -0.510  -0.507  -0.505  -0.496
 -0.475  -0.470  -0.466  -0.462  -0.456  -0.437  -0.430  -0.414
 -- Virtual --
 -0.404  -0.389  -0.381  -0.375  -0.351  -0.307  -0.292  -0.262
 -0.226  -0.217  -0.197  -0.182  -0.181  -0.174  -0.163  -0.159
 -0.153  -0.149  -0.139  -0.134  -0.126  -0.123  -0.119  -0.116
 -0.111  -0.109  -0.106  -0.095  -0.088  -0.084  -0.080  -0.079
 -0.076  -0.073  -0.070  -0.064  -0.062  -0.061  -0.056  -0.050
 -0.049  -0.045  -0.033  -0.032  -0.027  -0.025  -0.017  -0.016
 -0.012  -0.004  -0.000   0.010   0.026   0.030   0.038   0.050
  0.054   0.063   0.082   0.091   0.095   0.102   0.107   0.125
  0.130   0.134   0.144   0.155   0.174   0.179   0.182   0.188
  0.191   0.196   0.200   0.206   0.207   0.214   0.222   0.232
  0.240   0.242   0.249   0.251   0.252   0.255   0.266   0.275
  0.287   0.291   0.298   0.312   0.318   0.328   0.336   0.350
  0.352   0.357   0.358   0.359   0.365   0.366   0.370   0.375
  0.377   0.383   0.390   0.390   0.396   0.406   0.410   0.415
  0.417   0.419   0.422   0.426   0.432   0.433   0.439   0.442
  0.444   0.446   0.447   0.452   0.455   0.459   0.463   0.465
  0.466   0.468   0.476   0.482   0.485   0.487   0.488   0.496
  0.498   0.503   0.512   0.513   0.517   0.523   0.527   0.533
  0.553   0.555   0.576   0.584   0.597   0.610   0.622   0.628
  0.635   0.648   0.659   0.676   0.689   0.698   0.719   0.749
  0.753   0.776   0.782   0.804   0.819   0.830   0.847   0.850
  0.858   0.863   0.871   0.876   0.897   0.904   0.922   0.935
  0.944   0.965   0.987   0.992   1.006   1.031   1.047   1.051
  1.074   1.100   1.112   1.164   1.178   1.201   1.317   1.580
 --------------------------------------------------------------
 
          Ground-State Mulliken Net Atomic Charges

     Atom                 Charge (a.u.)    Spin (a.u.)
  --------------------------------------------------------
      1 C                    -0.078093       0.055708
      2 C                     0.146074       0.116809
      3 C                    -0.055073      -0.009411
      4 C                    -0.016318       0.057568
      5 C                    -0.137466       0.015892
      6 C                    -0.381505       0.136072
      7 H                     0.128007       0.004175
      8 H                     0.101368       0.003471
      9 H                     0.113600       0.026939
     10 C                     0.202038       0.005485
     11 H                     0.013791       0.002422
     12 C                    -0.111184       0.083869
     13 C                    -0.096828      -0.004231
     14 C                    -0.063645       0.001428
     15 H                     0.105228       0.004094
     16 H                     0.112406       0.006326
     17 C                    -0.059012       0.001351
     18 H                     0.088348       0.000417
     19 H                     0.097320       0.000292
     20 C                    -0.243591      -0.000563
     21 H                     0.088875       0.000027
     22 H                     0.068612       0.000031
     23 C                    -0.162208      -0.005414
     24 H                     0.094570       0.000981
     25 H                     0.119489       0.004604
     26 H                     0.126641       0.004218
     27 C                    -0.126243       0.002812
     28 H                     0.108275      -0.000068
     29 H                     0.109182       0.000349
     30 H                     0.071034      -0.000119
     31 C                    -0.165732       0.027561
     32 H                     0.122008       0.000348
     33 H                     0.018944       0.001668
     34 H                     0.145584       0.006854
     35 C                     0.031377       0.051364
     36 C                    -0.043420       0.165878
     37 C                     0.000667      -0.037795
     38 C                    -0.044455       0.238881
     39 H                     0.103533       0.000893
     40 H                     0.084743      -0.008116
     41 H                     0.150351      -0.012317
     42 H                     0.134575      -0.011535
     43 H                     0.076189      -0.003023
     44 C                     0.002275       0.021561
     45 H                     0.161982       0.004306
     46 H                     0.117045       0.021367
     47 H                     0.111699       0.057133
     48 C                    -0.145003      -0.005737
     49 H                     0.116709       0.000272
     50 H                     0.125909       0.005129
     51 H                     0.127959       0.004084
     52 Fe                    0.869242       2.604371
     53 O                    -0.171624       0.244542
     54 O                    -0.294253       0.106775
  --------------------------------------------------------
  Sum of atomic charges =     2.000000
  Sum of spin   charges =     4.000000

 -----------------------------------------------------------------
                    Cartesian Multipole Moments
 -----------------------------------------------------------------
    Charge (ESU x 10^10)
                 9.6064
    Dipole Moment (Debye)
         X      11.1113      Y      -2.1522      Z      -0.7756
       Tot      11.3443
    Quadrupole Moments (Debye-Ang)
        XX      99.8504     XY     -17.0496     YY    -117.0095
        XZ      -4.0364     YZ       4.8866     ZZ    -144.9661
    Octopole Moments (Debye-Ang^2)
       XXX    1172.0236    XXY    -238.6075    XYY      -0.8303
       YYY       2.8679    XXZ    -135.5864    XYZ      61.0679
       YYZ      -5.0495    XZZ     -13.1477    YZZ      12.7010
       ZZZ     -10.8946
    Hexadecapole Moments (Debye-Ang^3)
      XXXX   -3120.9252   XXXY   -1624.8809   XXYY   -2408.0184
      XYYY     -26.2506   YYYY   -1767.2410   XXXZ    -876.9255
      XXYZ     301.7350   XYYZ     -70.4761   YYYZ     -10.9384
      XXZZ   -2877.8620   XYZZ     -20.7256   YYZZ    -405.0651
      XZZZ      30.4559   YZZZ     -16.5609   ZZZZ    -684.9737
 -----------------------------------------------------------------
 Calculating analytic gradient of the SCF energy
 Gradient of SCF Energy
            1           2           3           4           5           6
    1  -0.0304074  -0.0099754  -0.0798762   0.0359052  -0.0367813   0.1080935
    2   0.0198900   0.0440926   0.0976591   0.0539625   0.0674646   0.1370478
    3   0.0147934  -0.0435847  -0.0342575  -0.0707651  -0.0093569  -0.0590178
            7           8           9          10          11          12
    1  -0.0161031   0.0016129  -0.0009822   0.0009171   0.0480460   0.0003791
    2   0.0116440   0.0068346   0.0020539  -0.0121767  -0.0200046   0.0195615
    3  -0.0176950  -0.0002592   0.0024270  -0.0007395  -0.0765552  -0.0033627
           13          14          15          16          17          18
    1   0.0019510  -0.0041178  -0.0000444  -0.0029417  -0.0017889   0.0026215
    2  -0.0087430  -0.0020950   0.0026908   0.0024863   0.0018415  -0.0006447
    3  -0.0020968   0.0003503  -0.0019331   0.0027128  -0.0006046  -0.0030590
           19          20          21          22          23          24
    1   0.0018918   0.0009689   0.0024151  -0.0011092   0.0016075  -0.0033552
    2   0.0012869  -0.0036631  -0.0022582   0.0014877  -0.0071804  -0.0012139
    3   0.0016268  -0.0021697   0.0007146   0.0040140   0.0015030  -0.0041489
           25          26          27          28          29          30
    1  -0.0003654   0.0011709  -0.0020446   0.0023016   0.0027121  -0.0031385
    2   0.0032833   0.0021109   0.0029662   0.0018982  -0.0023374  -0.0036183
    3   0.0039513  -0.0020083   0.0029537  -0.0028243   0.0015379  -0.0039037
           31          32          33          34          35          36
    1   0.0078538  -0.0008037  -0.0051452  -0.0011054   0.0292910  -0.0242003
    2   0.0218770   0.0025130  -0.0161382  -0.0062586  -0.0228565   0.0183073
    3   0.0006383   0.0057290  -0.0080405   0.0008186  -0.0103770   0.0095470
           37          38          39          40          41          42
    1   0.0184131  -0.0031108  -0.0017504   0.0016490  -0.0059747   0.0019012
    2  -0.0139567   0.0100336  -0.0031630   0.0038211  -0.0017389   0.0054281
    3  -0.0080979   0.0049267  -0.0013265   0.0016478  -0.0003302   0.0022747
           43          44          45          46          47          48
    1   0.0003656   0.0531949  -0.0000482   0.0029667   0.0299269   0.0003560
    2   0.0037866  -0.0289607  -0.0032017  -0.0002205  -0.0467395   0.0048961
    3   0.0018124  -0.2126013  -0.0042582  -0.0146452  -0.0436681   0.0026395
           49          50          51          52          53          54
    1  -0.0039075   0.0004724   0.0009841  -0.0423678  -0.1221452   0.0436215
    2  -0.0014700  -0.0000890  -0.0033177  -0.1737326  -0.1320851  -0.0330606
    3  -0.0005702  -0.0045327   0.0027071   0.1806292   0.1228604   0.2739742
 Max gradient component =       2.740E-01
 RMS gradient           =       4.518E-02
 Gradient time:  CPU 62.24 s  wall 8.21 s
 Geometry Optimization Parameters
   NAtoms,    NIC,     NZ,  NCons,   NDum,   NFix, NCnnct, MaxDiis
       54     669       0       0       0       0       0       0

 Cartesian Hessian Update
 Hessian Updated using BFGS Update


** GEOMETRY OPTIMIZATION IN DELOCALIZED INTERNAL COORDINATES **
   Searching for a Minimum

   Optimization Cycle:   2

                       Coordinates (Angstroms)
     ATOM                X               Y               Z
      1  C         4.1987068888   -0.5809376019   -0.0114864271
      2  C         3.1055108497    0.1619534980    0.4199872629
      3  C         1.7470232084   -0.3083808241    0.2935607609
      4  C         0.5260514466    0.3309890211    0.6551554785
      5  C        -0.7357755248   -0.3673002433    0.3638907282
      6  C        -2.0237949912    0.1230784658    0.5621368172
      7  H         3.2912759583    1.1426830901    0.8666813892
      8  H         1.6504228731   -1.3055496255   -0.1637173987
      9  H        -0.6253178436   -1.3554795135   -0.0994404803
     10  C        -3.2973502507   -0.5319344869    0.1947728937
     11  H        -2.1248044933    1.1655111473    0.9532433936
     12  C        -3.5794473153   -1.8589030722    0.4488059506
     13  C        -4.8867759000   -2.5241390974    0.0099758799
     14  C        -6.0140594549   -1.5364504222   -0.3790017595
     15  H        -5.2342298100   -3.2020874674    0.8156071855
     16  H        -4.6643074322   -3.1911171007   -0.8542757415
     17  C        -5.4355015995   -0.3881685651   -1.2342910976
     18  H        -6.4874702230   -1.1300322910    0.5360682237
     19  H        -6.8100101566   -2.0689463166   -0.9333907485
     20  C        -4.3351490792    0.4337725741   -0.4866546025
     21  H        -6.2364706289    0.3021294818   -1.5637221901
     22  H        -4.9893313522   -0.8208075824   -2.1539761363
     23  C        -2.6345450820   -2.8065705446    1.1808638563
     24  H        -1.8580983127   -2.2763823198    1.7544275016
     25  H        -2.1197785069   -3.4943212971    0.4769661425
     26  H        -3.2042683743   -3.4496003358    1.8797091355
     27  C        -4.9938429910    1.3532185511    0.6006175864
     28  H        -5.5678818384    0.7616708951    1.3346447076
     29  H        -5.6790953338    2.0786020126    0.1220426376
     30  H        -4.2328679063    1.9313335856    1.1578307240
     31  C        -3.6343062802    1.3508151246   -1.5556579962
     32  H        -3.1080112593    0.7423843828   -2.3144954886
     33  H        -2.8962213298    2.0434417491   -1.0983530333
     34  H        -4.3909774929    1.9696455973   -2.0740686758
     35  C         5.5927074868   -0.1850625202    0.0509018210
     36  C         6.5520663770   -1.0716535753   -0.4379363846
     37  C         7.9881270296   -0.8956885563   -0.4838956460
     38  C         8.8526832039   -1.8336801244   -0.9815744443
     39  H         8.4070208544    0.0422140069   -0.0976458522
     40  H         6.1856919882   -2.0272250268   -0.8418995363
     41  H         9.9345784657   -1.6675462303   -1.0007921721
     42  H         8.4971567885   -2.7914685183   -1.3820311996
     43  H         4.0022602916   -1.5689827810   -0.4536540537
     44  C         0.4529272274    1.7328909978    1.3264003275
     45  H         1.4462657707    2.1448496827    1.5536352976
     46  H        -0.1174747276    1.6893042131    2.2794461501
     47  H        -0.0758722976    2.4698129051    0.6685356093
     48  C         5.9413086419    1.1790203445    0.6394075452
     49  H         7.0242158132    1.3725050644    0.6475327294
     50  H         5.5796582867    1.2648163530    1.6823171607
     51  H         5.4608864115    1.9927255276    0.0624159917
     52  Fe       -1.2805605420    1.3503019396   -0.2051633907
     53  O         1.9848241326    1.4918236141   -0.2122624196
     54  O         0.7091149285    1.4364600073   -0.2089882207
   Point Group: c1    Number of degrees of freedom:   156


   Energy is  -2229.637495647

 Hessian Updated using BFGS Update

147 Hessian modes will be used to form the next step
  Hessian Eigenvalues:
     0.002000    0.004190    0.005409    0.005784    0.005796    0.005809
     0.008451    0.008598    0.009722    0.010060    0.011271    0.012264
     0.013701    0.015175    0.015403    0.015687    0.015732    0.020011
     0.020398    0.021084    0.021153    0.021464    0.023925    0.024210
     0.024899    0.027092    0.027235    0.027235    0.027835    0.029103
     0.029498    0.032690    0.035981    0.040324    0.041489    0.041710
     0.043442    0.044606    0.046406    0.047993    0.049756    0.051009
     0.051432    0.052847    0.053476    0.053930    0.054795    0.057186
     0.058465    0.060657    0.065229    0.065496    0.068589    0.069080
     0.070997    0.071509    0.071550    0.071904    0.073801    0.078180
     0.078676    0.083137    0.083364    0.085557    0.092165    0.097056
     0.099755    0.100346    0.106660    0.110651    0.114506    0.117852
     0.119758    0.121837    0.124808    0.126831    0.137741    0.144597
     0.148105    0.149654    0.155839    0.159950    0.159988    0.159999
     0.160000    0.160000    0.165584    0.183180    0.196663    0.202047
     0.219775    0.220000    0.220000    0.226703    0.234210    0.243715
     0.249991    0.249997    0.251142    0.253009    0.259836    0.261925
     0.271903    0.275437    0.287375    0.297435    0.298296    0.298675
     0.313113    0.323370    0.324933    0.327498    0.328018    0.328666
     0.330100    0.330164    0.330410    0.330969    0.330983    0.331059
     0.331184    0.331276    0.331388    0.332804    0.333019    0.334563
     0.337690    0.338270    0.338286    0.338609    0.338650    0.338664
     0.340300    0.341451    0.341556    0.342729    0.343475    0.345607
     0.353428    0.374275    0.377035    0.381342    0.479103    0.480862
     0.487815    0.522589    0.727074

 Minimum Search - Taking Simple RFO Step
 Searching for Lamda that Minimizes Along All modes
 Value Taken    Lamda =  -0.23075700
 Calculated Step too Large.  Step scaled by  0.436101
 Step Taken.  Stepsize is  0.300000

                             Maximum     Tolerance    Cnvgd?
         Gradient           0.082730      0.000300      NO
         Displacement       0.073374      0.001200      NO
         Energy change     -0.116030      0.000001      NO


 New Cartesian Coordinates Obtained by Inverse Iteration

 Displacement from previous Coordinates is:  0.748509
 ----------------------------------------------------------------
             Standard Nuclear Orientation (Angstroms)
    I     Atom           X                Y                Z
 ----------------------------------------------------------------
    1      C       4.2158608036    -0.5664167309    -0.0110435863
    2      C       3.1301767023     0.2010210927     0.4295309119
    3      C       1.7743039837    -0.2548067779     0.3062297159
    4      C       0.5245436107     0.3841217492     0.6725036343
    5      C      -0.7332937619    -0.3386334559     0.3755354609
    6      C      -2.0486404837     0.1285661331     0.5779241467
    7      H       3.3372830234     1.1758379886     0.8805201199
    8      H       1.6768329744    -1.2550126562    -0.1505259807
    9      H      -0.6072880041    -1.3245269819    -0.0920617268
   10      C      -3.3067581229    -0.5391547715     0.2016475955
   11      H      -2.1718874002     1.1859929067     0.9830524382
   12      C      -3.5726556778    -1.8744744105     0.4490959340
   13      C      -4.8679158171    -2.5496058388    -0.0047056613
   14      C      -6.0035608311    -1.5730960764    -0.4008857670
   15      H      -5.2146468154    -3.2369570418     0.7950910311
   16      H      -4.6274759228    -3.2108192514    -0.8709773563
   17      C      -5.4328210942    -0.4135584291    -1.2474535044
   18      H      -6.4919266435    -1.1766417787     0.5126287546
   19      H      -6.7879136300    -2.1138724178    -0.9659658595
   20      C      -4.3504451591     0.4210390340    -0.4868116279
   21      H      -6.2412021349     0.2679391476    -1.5818537068
   22      H      -4.9723983788    -0.8375621872    -2.1663050773
   23      C      -2.6192755240    -2.8093273014     1.1844582439
   24      H      -1.8525489744    -2.2710334413     1.7676278815
   25      H      -2.0908653516    -3.4873685919     0.4781560730
   26      H      -3.1845081304    -3.4649019331     1.8773997856
   27      C      -5.0289513661     1.3291568514     0.5988564952
   28      H      -5.6024010261     0.7271426237     1.3274526634
   29      H      -5.7208106654     2.0481121148     0.1163200742
   30      H      -4.2799441879     1.9172340352     1.1665445586
   31      C      -3.6538214915     1.3540682703    -1.5542598996
   32      H      -3.1143622960     0.7542573748    -2.3141349869
   33      H      -2.9259306833     2.0695437986    -1.0942940711
   34      H      -4.4161497522     1.9657710490    -2.0756900122
   35      C       5.6087565206    -0.1896599173     0.0493709495
   36      C       6.5536208017    -1.1002535886    -0.4473101831
   37      C       7.9881791493    -0.9488681762    -0.4971442160
   38      C       8.8313461434    -1.9095235125    -1.0017876493
   39      H       8.4288216523    -0.0189052553    -0.1117677847
   40      H       6.1665482896    -2.0497971492    -0.8509920199
   41      H       9.9188893615    -1.7661187225    -1.0261818388
   42      H       8.4517088686    -2.8611090551    -1.4016057063
   43      H       4.0021942230    -1.5518293009    -0.4551143539
   44      C       0.4190685659     1.8039664450     1.3670766698
   45      H       1.4040862783     2.2334515107     1.6057984937
   46      H      -0.1590158570     1.7434088093     2.3199773997
   47      H      -0.1220050320     2.5460673288     0.7039741776
   48      C       5.9872095035     1.1665724304     0.6372516940
   49      H       7.0753599538     1.3395033351     0.6409408956
   50      H       5.6324045940     1.2588268859     1.6838624366
   51      H       5.5202902052     1.9916405433     0.0619286382
   52      Fe     -1.3063717560     1.3974098565    -0.2009723686
   53      O       2.0133477577     1.5871449647    -0.2297230571
   54      O       0.7038455977     1.5155762639    -0.2219830789
 ----------------------------------------------------------------
 Molecular Point Group                 C1    NOp =  1
 Largest Abelian Subgroup              C1    NOp =  1
 Nuclear Repulsion Energy =  2490.1686461592 hartrees
 There are      100 alpha and       96 beta electrons
 Applying Cartesian multipole field
    Component          Value
    ---------          -----
     (2,0,0)        1.00000E-12
     (0,2,0)        2.00000E-11
     (0,0,2)       -3.00000E-11
 Nucleus-field energy     =     0.0000000306 hartrees
 Requested basis set is VDZ
 There are 184 shells and 288 basis functions
 A cutoff of  1.0D-11 yielded  10569 shell pairs
 There are     26611 function pairs (     27034 Cartesian)
 Smallest overlap matrix eigenvalue = 8.72E-04
 Guess MOs from SCF MO coefficient file

 -----------------------------------------------------------------------
  General SCF calculation program by
  Eric Jon Sundstrom, Paul Horn, Yuezhi Mao, Dmitri Zuev, Alec White,
  David Stuck, Shaama M.S., Shane Yost, Joonho Lee, David Small,
  Daniel Levine, Susi Lehtola, Hugh Burton, Evgeny Epifanovsky
 -----------------------------------------------------------------------
 Exchange:  B88      Correlation:  LYP
 Using SG-1 standard quadrature grid
 using 8 threads for integral computing
 -------------------------------------------------------
 OpenMP Integral computing Module                
 Release: version 1.0, May 2013, Q-Chem Inc. Pittsburgh 
 -------------------------------------------------------
 -------------------------------------------------------
 OpenMP BLAS3 based DFT computing Module                
 Release: version 1.0, May 2013, Q-Chem Inc. Pittsburgh 
 -------------------------------------------------------
 A unrestricted SCF calculation will be
 performed using DIIS
 SCF converges when DIIS error is below 1.0e-08
 ---------------------------------------
  Cycle       Energy         DIIS error
 ---------------------------------------
    1   -2229.7222248156      2.99e-04  
    2   -2229.7252483911      2.91e-04  
    3   -2229.5145914632      2.37e-03  
    4   -2229.7197748633      4.10e-04  
    5   -2229.7266563586      1.60e-04  
    6   -2229.7266750675      1.59e-04  
    7   -2229.7279682002      6.61e-05  
    8   -2229.7281488838      2.32e-05  
    9   -2229.7281734176      1.40e-05  
   10   -2229.7281738065      1.96e-05  
   11   -2229.7281812374      1.89e-05  
   12   -2229.7281927313      1.52e-05  
   13   -2229.7282086988      1.14e-05  
   14   -2229.7282290899      9.95e-06  
   15   -2229.7282399194      1.06e-05  
   16   -2229.7282342863      1.13e-05  
   17   -2229.7282418104      1.07e-05  
   18   -2229.7282801278      1.24e-05  
   19   -2229.7282713435      1.24e-05  
   20   -2229.7282897553      1.81e-05  
   21   -2229.7282643389      2.41e-05  
   22   -2229.7282609705      2.69e-05  
   23   -2229.7282261460      2.93e-05  
   24   -2229.7282835458      1.99e-05  
   25   -2229.7282836868      1.83e-05  
   26   -2229.7282744028      1.83e-05  
   27   -2229.7282820985      1.84e-05  
   28   -2229.7283119235      1.81e-05  
   29   -2229.7283094023      1.59e-05  
   30   -2229.7283127465      1.57e-05  
   31   -2229.7283110429      1.61e-05  
   32   -2229.7282716926      2.69e-05  
   33   -2229.7282852007      2.04e-05  
   34   -2229.7282841408      2.07e-05  
   35   -2229.7282902313      2.02e-05  
   36   -2229.7282789657      2.16e-05  
   37   -2229.7282920771      1.70e-05  
   38   -2229.7282689172      1.98e-05  
   39   -2229.7283070679      1.58e-05  
   40   -2229.7283273435      1.64e-05  
   41   -2229.7283296086      1.32e-05  
   42   -2229.7283300304      1.28e-05  
   43   -2229.7283682618      1.38e-05  
   44   -2229.7284067969      2.87e-05  
   45   -2229.7284119294      1.65e-05  
   46   -2229.7284276656      1.72e-05  
   47   -2229.7283716948      1.61e-05  
   48   -2229.7283115478      2.61e-05  
   49   -2229.7282936233      2.78e-05  
   50   -2229.7282900960      2.86e-05  
gen_scfman_exception: SCF failed to converge

 Q-Chem fatal error occurred in module libgscf/gen_scfman/gen_scfman_main.C, line 142:

 Error in gen_scfman


 Please submit a crash report at q-chem.com/reporter 
 
 
