
Running Job 1 of 1 bcar_1_opt_631g_gga.in
qchem bcar_1_opt_631g_gga.in_6870.0 /scr/c295_lal/137031/qchem6870/ 1
/usr/software/qchem_511/exe/qcprog.exe_s bcar_1_opt_631g_gga.in_6870.0 /scr/c295_lal/137031/qchem6870/
Check license passed

                  Welcome to Q-Chem
     A Quantum Leap Into The Future Of Chemistry


 Q-Chem 5.1, Q-Chem, Inc., Pleasanton, CA (2018)

 Yihan Shao,  Zhengting Gan,  E. Epifanovsky,  A. T. B. Gilbert,  M. Wormit,  
 J. Kussmann,  A. W. Lange,  A. Behn,  Jia Deng,  Xintian Feng,  D. Ghosh,  
 M. Goldey,  P. R. Horn,  L. D. Jacobson,  I. Kaliman,  T. Kus,  A. Landau,  
 Jie Liu,  E. I. Proynov,  R. M. Richard,  R. P. Steele,  E. J. Sundstrom,  
 H. L. Woodcock III,  P. M. Zimmerman,  D. Zuev,  B. Albrecht,  E. Alguire,  
 S. A. Baeppler,  D. Barton,  Z. Benda,  Y. A. Bernard,  E. J. Berquist,  
 K. B. Bravaya,  H. Burton,  D. Casanova,  Chun-Min Chang,  Yunqing Chen,  
 A. Chien,  K. D. Closser,  M. P. Coons,  S. Coriani,  S. Dasgupta,  
 A. L. Dempwolff,  M. Diedenhofen,  Hainam Do,  R. G. Edgar,  Po-Tung Fang,  
 S. Faraji,  S. Fatehi,  Qingguo Feng,  K. D. Fenk,  J. Fosso-Tande,  
 Qinghui Ge,  A. Ghysels,  G. Gidofalvi,  J. Gomes,  J. Gonthier,  A. Gunina,  
 D. Hait,  M. W. D. Hanson-Heine,  P. H. P. Harbach,  A. W. Hauser,  
 J. E. Herr,  E. G. Hohenstein,  Z. C. Holden,  Kerwin Hui,  B. C. Huynh,  
 T.-C. Jagau,  Hyunjun Ji,  B. Kaduk,  K. Khistyaev,  Jaehoon Kim,  
 P. Klunzinger,  K. Koh,  D. Kosenkov,  L. Koulias,  T. Kowalczyk,  
 C. M. Krauter,  A. Kunitsa,  Ka Un Lao,  A. Laurent,  K. V. Lawler,  
 Joonho Lee,  D. Lefrancois,  S. Lehtola,  D. S. Levine,  Yi-Pei Li,  
 You-Sheng Lin,  Fenglai Liu,  E. Livshits,  A. Luenser,  P. Manohar,  
 E. Mansoor,  S. F. Manzer,  Shan-Ping Mao,  Yuezhi Mao,  N. Mardirossian,  
 A. V. Marenich,  T. Markovich,  L. A. Martinez-Martinez,  S. A. Maurer,  
 N. J. Mayhall,  S. C. McKenzie,  J.-M. Mewes,  A. F. Morrison,  
 J. W. Mullinax,  K. Nanda,  T. S. Nguyen-Beck,  R. Olivares-Amaya,  
 J. A. Parkhill,  T. M. Perrine,  F. Plasser,  P. Pokhilko,  S. Prager,  
 A. Prociuk,  E. Ramos,  D. R. Rehn,  F. Rob,  M. Schneider,  N. Sergueev,  
 S. M. Sharada,  S. Sharma,  D. W. Small,  T. Stauch,  T. Stein,  
 Yu-Chuan Su,  A. J. W. Thom,  A. Tkatchenko,  T. Tsuchimochi,  N. M. Tubman,  
 L. Vogt,  M. L. Vidal,  O. Vydrov,  M. A. Watson,  J. Wenzel,  
 M. de Wergifosse,  T. A. Wesolowski,  A. White,  J. Witte,  A. Yamada,  
 Jun Yang,  K. Yao,  S. Yeganeh,  S. R. Yost,  Zhi-Qiang You,  A. Zech,  
 Igor Ying Zhang,  Xing Zhang,  Yan Zhao,  Ying Zhu,  B. R. Brooks,  
 G. K. L. Chan,  C. J. Cramer,  M. S. Gordon,  W. J. Hehre,  A. Klamt,  
 M. W. Schmidt,  C. D. Sherrill,  D. G. Truhlar,  A. Aspuru-Guzik,  R. Baer,  
 A. T. Bell,  N. A. Besley,  Jeng-Da Chai,  A. E. DePrince, III,  
 R. A. DiStasio Jr.,  A. Dreuw,  B. D. Dunietz,  T. R. Furlani,  
 Chao-Ping Hsu,  Yousung Jung,  Jing Kong,  D. S. Lambrecht,  WanZhen Liang,  
 C. Ochsenfeld,  V. A. Rassolov,  L. V. Slipchenko,  J. E. Subotnik,  
 T. Van Voorhis,  J. M. Herbert,  A. I. Krylov,  P. M. W. Gill,  M. Head-Gordon

 Contributors to earlier versions of Q-Chem not listed above: 
 R. D. Adamson,  B. Austin,  J. Baker,  G. J. O. Beran,  K. Brandhorst,  
 S. T. Brown,  E. F. C. Byrd,  A. K. Chakraborty,  C.-L. Cheng,  
 Siu Hung Chien,  D. M. Chipman,  D. L. Crittenden,  H. Dachsel,  
 R. J. Doerksen,  A. D. Dutoi,  L. Fusti-Molnar,  W. A. Goddard III,  
 A. Golubeva-Zadorozhnaya,  S. R. Gwaltney,  G. Hawkins,  A. Heyden,  
 S. Hirata,  G. Kedziora,  F. J. Keil,  C. Kelley,  Jihan Kim,  R. A. King,  
 R. Z. Khaliullin,  P. P. Korambath,  W. Kurlancheek,  A. M. Lee,  M. S. Lee,  
 S. V. Levchenko,  Ching Yeh Lin,  D. Liotard,  R. C. Lochan,  I. Lotan,  
 P. E. Maslen,  N. Nair,  D. P. O'Neill,  D. Neuhauser,  E. Neuscamman,  
 C. M. Oana,  R. Olson,  B. Peters,  R. Peverati,  P. A. Pieniazek,  
 Y. M. Rhee,  J. Ritchie,  M. A. Rohrdanz,  E. Rosta,  N. J. Russ,  
 H. F. Schaefer III,  N. E. Schultz,  N. Shenvi,  A. C. Simmonett,  A. Sodt,  
 D. Stuck,  K. S. Thanthiriwatte,  V. Vanovschi,  Tao Wang,  A. Warshel,  
 C. F. Williams,  Q. Wu,  X. Xu,  W. Zhang

 Please cite Q-Chem as follows:
 Y. Shao et al., Mol. Phys. 113, 184-215 (2015)
 DOI: 10.1080/00268976.2014.952696

 Q-Chem 5.1.1 for Intel X86 EM64T Linux

 Parts of Q-Chem use Armadillo 8.300.2 (Tropical Shenanigans).
 http://arma.sourceforge.net/

 Q-Chem begins on Wed Oct 31 00:21:06 2018  

Host: cub-0-21.local
0

     Scratch files written to /scr/c295_lal/137031/qchem6870//
 Aug318 |scratch|qcdevops|jenkins|workspace|build_RNUM -1
Processing $rem in /usr/software/qchem_511/config/preferences.
 MEM_TOTAL  2000 
Input Ideriv = 2
Curr. Ideriv = -1
Max.  Ideriv = 2

Checking the input file for inconsistencies... 	...done.

--------------------------------------------------------------
User input:
--------------------------------------------------------------
$molecule
0 1
C         -0.23771        4.21960       -1.24078
C         -0.57035        3.13402       -0.52995
C          0.43344        2.42588        0.29139
C          0.10006        1.34157        1.00416
C          1.10395        0.63215        1.82689
C          0.77023       -0.47039        2.52115
H         -1.59319        2.76491       -0.55449
H          1.45652        2.79437        0.31458
H          2.12127        1.00281        1.81396
C          1.70604       -1.31165        3.35323
H         -0.24451       -0.83134        2.39160
C          2.76541       -0.80501        4.08358
C          3.68373       -1.70070        4.90138
C          3.09221       -3.06992        5.21635
H          3.92094       -1.23485        5.88286
H          4.63804       -1.79895        4.33945
C          2.57102       -3.67292        3.93172
H          2.27258       -2.98131        5.95822
H          3.88292       -3.71081        5.66287
C          1.39700       -2.83360        3.35123
H          2.24859       -4.72541        4.09251
H          3.42538       -3.69625        3.21644
C          3.10298        0.66577        4.23643
H          2.35447        1.37401        3.85359
H          4.09892        0.87523        3.79306
H          3.14389        0.91155        5.31860
C          0.10320       -3.08674        4.16307
H          0.19627       -2.72024        5.20526
H         -0.13251       -4.17234        4.19459
H         -0.77088       -2.57446        3.71228
C          1.17986       -3.35073        1.90727
H          2.08236       -3.16469        1.28557
H          0.31687       -2.85905        1.41282
H          0.97484       -4.44360        1.90800
C         -1.24166        4.92759       -2.06210
C         -0.90985        6.01465       -2.77106
C         -1.91403        6.72247       -3.59226
C         -1.58310        7.81106       -4.29928
H         -2.93581        6.35062       -3.61975
H          0.11232        6.38550       -2.74469
H          0.78499        4.58908       -1.21590
C         -2.58755        8.51871       -5.12031
C         -2.25752        9.60884       -5.82537
C         -3.26221       10.31630       -6.64626
C         -2.93305       11.40793       -7.34941
H         -1.91251       11.78286       -7.31852
H         -4.28288        9.94165       -6.67673
C         -3.93800       12.11522       -8.17024
C         -3.60961       13.20891       -8.87205
H         -4.95777       11.73834       -8.20139
C         -4.61486       13.92137       -9.69681
H         -0.56149        8.18331       -4.27141
H         -3.60877        8.14545       -5.14931
H         -2.58790       13.58027       -8.83559
H         -1.23645        9.98249       -5.79602
H         -2.26398        4.55712       -2.08810
H         -0.92388        0.97554        0.98010
C         -4.26894       15.02129      -10.39721
H         -5.59891       13.50167       -9.69032
C         -5.10894       15.91092      -11.30474
H         -3.23065       15.28780      -10.28275
C         -6.46292       15.75632      -11.56364
C         -7.18820       16.79610      -12.42085
C         -6.82066       18.15362      -11.84991
H         -8.29038       16.66750      -12.37695
H         -6.93442       16.75109      -13.49094
C         -4.40491       17.11405      -12.00609
C         -7.33708       14.67522      -10.97825
H         -8.39383       14.76337      -11.30414
H         -7.34897       14.75390       -9.87153
H         -6.99342       13.68091      -11.33089
C         -4.12020       16.69980      -13.47838
H         -4.99777       16.39881      -14.06669
H         -3.43212       15.82649      -13.49711
H         -3.62751       17.52793      -14.03290
C         -3.01943       17.50738      -11.42693
H         -3.10683       17.76698      -10.34982
H         -2.61362       18.39580      -11.95913
H         -2.26206       16.70483      -11.54991
C         -5.30100       18.40459      -11.93950
H         -7.11601       18.11998      -10.77543
H         -7.37861       18.99550      -12.31299
H         -5.06424       19.03376      -11.05211
H         -5.06037       19.03333      -12.82488
$end

$rem
BASIS = 6-31G
METHOD  = BLYP
JOBTYPE = OPT
$end
--------------------------------------------------------------
 ----------------------------------------------------------------
             Standard Nuclear Orientation (Angstroms)
    I     Atom           X                Y                Z
 ----------------------------------------------------------------
    1      C       4.3633490254    -0.2456839049    -0.0173904213
    2      C       5.4997217697     0.4412897283    -0.1938466714
    3      C       6.8154249787    -0.2184258199    -0.0621026755
    4      C       7.9518380286     0.4682205085    -0.2409704286
    5      C       9.2693625356    -0.1912037609    -0.1096489612
    6      C      10.4077284321     0.5078709614    -0.2657836983
    7      H       5.4582118079     1.5003921472    -0.4380291006
    8      H       6.8566330831    -1.2771934786     0.1835154827
    9      H       9.2851669015    -1.2397140822     0.1602997951
   10      C      11.8080360878    -0.0308299833    -0.1084444736
   11      H      10.2982338355     1.5746330003    -0.4294756601
   12      C      12.1916261101    -1.3128223449    -0.4573202233
   13      C      13.6180847439    -1.8075615549    -0.2707246210
   14      C      14.6449466845    -0.6911524347    -0.1189002138
   15      H      13.9462622308    -2.4105722639    -1.1455191220
   16      H      13.6236646863    -2.4770734016     0.6168838033
   17      C      14.1491330031     0.2751423229     0.9327487237
   18      H      14.7959053061    -0.1640013906    -1.0829227432
   19      H      15.6195518245    -1.1349949088     0.1785742995
   20      C      12.8350923009     0.9741589613     0.4806177304
   21      H      14.9271192791     1.0344998407     1.1686793144
   22      H      13.9766119576    -0.3181753180     1.8602784768
   23      C      11.3029044571    -2.3439996449    -1.1261682143
   24      H      10.3301174149    -1.9802778903    -1.4864867386
   25      H      11.1671660329    -3.2197409920    -0.4575882974
   26      H      11.7973454136    -2.6898016841    -2.0584355771
   27      C      13.1420258613     2.0609015509    -0.5785634717
   28      H      13.5384517716     1.6188206924    -1.5148087831
   29      H      13.8903641024     2.7850019958    -0.1903000341
   30      H      12.2350351173     2.6393874205    -0.8475990785
   31      C      12.2670405610     1.6666736302     1.7444746655
   32      H      12.0120419369     0.9137976209     2.5215084086
   33      H      11.3516592822     2.2534047830     1.5235551467
   34      H      13.0107846552     2.3734899255     2.1730233992
   35      C       3.0477217175     0.4142379730    -0.1491473441
   36      C       1.9111659004    -0.2730757113     0.0248135002
   37      C       0.5956700932     0.3871044486    -0.1070538669
   38      C      -0.5410771904    -0.3005431903     0.0643126153
   39      H       0.5546741090     1.4471537749    -0.3472147425
   40      H       1.9523238130    -1.3327744737     0.2664768352
   41      H       4.4047547353    -1.3049065625     0.2262952442
   42      C      -1.8564224994     0.3599206430    -0.0677208232
   43      C      -2.9933621620    -0.3280522346     0.1010226054
   44      C      -4.3085519306     0.3326846299    -0.0311315028
   45      C      -5.4456764908    -0.3556108670     0.1350591372
   46      H      -5.4052209309    -1.4166979622     0.3706140410
   47      H      -4.3489936855     1.3936725608    -0.2671979491
   48      C      -6.7607802552     0.3054205551     0.0028279636
   49      C      -7.8988213347    -0.3834547416     0.1666828115
   50      H      -6.7997383288     1.3668430741    -0.2312750360
   51      C      -9.2202191173     0.2760135919     0.0349053890
   52      H      -0.5001917200    -1.3607087440     0.3039188939
   53      H      -1.8971448219     1.4204433912    -0.3058122108
   54      H      -7.8519891970    -1.4447912127     0.4001363427
   55      H      -2.9527555686    -1.3886981588     0.3385957898
   56      H       3.0064676785     1.4738148881    -0.3913395581
   57      H       7.9080391096     1.5266814382    -0.4874498051
   58      C     -10.3568719506    -0.4311413649     0.2022284783
   59      H      -9.1942563719     1.3210429269    -0.1926561138
   60      C     -11.8110688264     0.0153848989     0.1211237317
   61      H     -10.1803827512    -1.4694582089     0.4322817110
   62      C     -12.2501617503     1.2949417192    -0.1856725496
   63      C     -13.7504576844     1.5613835178    -0.3274589697
   64      C     -14.2910509512     0.4857507783    -1.2519544079
   65      H     -13.9498289512     2.5593116843    -0.7720446138
   66      H     -14.2992467062     1.5552393441     0.6266456657
   67      C     -12.9199174617    -1.0482348235     0.3935932721
   68      C     -11.3515396809     2.4652893478    -0.4993270926
   69      H     -11.9235367325     3.3842846150    -0.7421487326
   70      H     -10.7346482331     2.2415973943    -1.3940717068
   71      H     -10.7370658997     2.7171166985     0.3895567575
   72      C     -13.4348686911    -0.8301846738     1.8453439581
   73      H     -13.8296105937     0.1711198829     2.0653456769
   74      H     -12.6044548715    -0.9909424058     2.5671784927
   75      H     -14.2397264327    -1.5565317289     2.0916347106
   76      C     -12.4508145835    -2.5274533049     0.3542893452
   77      H     -12.0069690806    -2.7692864793    -0.6355160688
   78      H     -13.3115760470    -3.2127228687     0.5177029929
   79      H     -11.7161060715    -2.7634914567     1.1526058821
   80      C     -14.0880900836    -0.9208564853    -0.6514198820
   81      H     -13.6938832981     0.5649415903    -2.1900323108
   82      H     -15.3557383452     0.6355958128    -1.5321337113
   83      H     -13.9376944199    -1.5862820410    -1.5311705130
   84      H     -15.0225449072    -1.2760663179    -0.1638394412
 ----------------------------------------------------------------
 Molecular Point Group                 C1    NOp =  1
 Largest Abelian Subgroup              C1    NOp =  1
 Nuclear Repulsion Energy =  2923.4706255993 hartrees
 There are      132 alpha and      132 beta electrons
 Requested basis set is 6-31G
 There are 204 shells and 420 basis functions

 Total QAlloc Memory Limit   2000 MB
 Mega-Array Size       188 MB
 MEM_STATIC part       192 MB
 A cutoff of  1.0D-11 yielded   6560 shell pairs
 There are     30365 function pairs
 
 -------------------------------------------------------
 OpenMP Integral Computing Module                       
 Release: version 1.0, May 2013, Q-Chem Inc. Pittsburgh 
 -------------------------------------------------------
 Integral Job Info:
 Integral job number is                      11
 Integral operator is                         1
 short-range coefficients                     0
 long-range coefficients              100000000
 Omega coefficients                           0
 if combine SR and LR in K                    0
 Integral screening is                        0
 Integral computing path is                   2
 max size of driver memory is            800000
 size of driver memory is                 45569
 size of scratch memory is              2040132
 max col of scratch BK array                289
 max len of scratch array in speh3           22
 max len of scratch index in speh4            8
 max int batch size is                      520
 min int batch size is                       52
 fixed nKL is                                52
 max L of basis functions is                  1
 order of int derivative is                   0
 number of shells is                        204
 number of basis is                         420
 number of cartesian basis is               420
 number of contracted shell pairs          6560
 number of primitive shell pairs          24877
 maxK2 (contraction) of shell pair           36
 max number of K2 of shell pair               1
 max number of CS2 of shell pair           1174
 max number of PS2 of shell pair           4614
 mem total for path MDJ                  612806
 -------------------------------------------------------
 Smallest overlap matrix eigenvalue = 1.64E-03

 Scale SEOQF with 1.000000e-02/1.000000e-01/1.000000e-01

 Standard Electronic Orientation quadrupole field applied
 Nucleus-field energy     =     0.0000001161 hartrees
 Guess from superposition of atomic densities
 Warning:  Energy on first SCF cycle will be non-variational
 SAD guess density has 264.000001 electrons

 -----------------------------------------------------------------------
  General SCF calculation program by
  Eric Jon Sundstrom, Paul Horn, Yuezhi Mao, Dmitri Zuev, Alec White,
  David Stuck, Shaama M.S., Shane Yost, Joonho Lee, David Small,
  Daniel Levine, Susi Lehtola, Hugh Burton, Evgeny Epifanovsky
 -----------------------------------------------------------------------
 Exchange:  B88      Correlation:  LYP
 Using SG-1 standard quadrature grid
 using 4 threads for integral computing
 -------------------------------------------------------
 OpenMP Integral computing Module                
 Release: version 1.0, May 2013, Q-Chem Inc. Pittsburgh 
 -------------------------------------------------------
 -------------------------------------------------------
 OpenMP BLAS3 based DFT computing Module                
 Release: version 1.0, May 2013, Q-Chem Inc. Pittsburgh 
 -------------------------------------------------------
 A restricted SCF calculation will be
 performed using DIIS
 SCF converges when DIIS error is below 1.0e-08
 ---------------------------------------
  Cycle       Energy         DIIS error
 ---------------------------------------
    1   -1404.8564990846      4.49e-02  
    2   -1398.5116782071      6.18e-03  
    3   -1397.9164689353      7.76e-03  
    4   -1399.4835873182      9.76e-04  
    5   -1399.5013646474      5.49e-04  
    6   -1399.5071571788      3.17e-04  
    7   -1399.5098198674      5.54e-05  
    8   -1399.5098733590      3.22e-05  
    9   -1399.5099008091      1.19e-05  
   10   -1399.5099046238      2.43e-06  
   11   -1399.5099047189      1.60e-06  
   12   -1399.5099047886      3.18e-07  
   13   -1399.5099047905      1.88e-07  
   14   -1399.5099047914      5.87e-08  
   15   -1399.5099047915      1.33e-08  
   16   -1399.5099047915      8.06e-09  Convergence criterion met
 ---------------------------------------
 SCF time:   CPU 309.73s  wall 77.00s 
 SCF   energy in the final basis set =    -1399.5099047915
 Total energy in the final basis set =    -1399.5099047915
 
 --------------------------------------------------------------
 
                    Orbital Energies (a.u.)
 --------------------------------------------------------------
 
 Alpha MOs
 -- Occupied --
 -9.932  -9.928  -9.921  -9.921  -9.920  -9.918  -9.915  -9.915
 -9.915  -9.915  -9.915  -9.914  -9.914  -9.914  -9.914  -9.914
 -9.914  -9.914  -9.914  -9.914  -9.914  -9.913  -9.913  -9.912
 -9.912  -9.911  -9.911  -9.909  -9.908  -9.907  -9.907  -9.905
 -9.904  -9.903  -9.901  -9.900  -0.759  -0.757  -0.740  -0.735
 -0.726  -0.716  -0.703  -0.699  -0.698  -0.690  -0.678  -0.667
 -0.654  -0.639  -0.624  -0.608  -0.602  -0.600  -0.597  -0.595
 -0.591  -0.555  -0.538  -0.525  -0.512  -0.505  -0.502  -0.501
 -0.495  -0.492  -0.488  -0.483  -0.478  -0.476  -0.437  -0.436
 -0.423  -0.419  -0.413  -0.411  -0.405  -0.402  -0.394  -0.390
 -0.385  -0.382  -0.376  -0.370  -0.367  -0.367  -0.362  -0.358
 -0.353  -0.352  -0.352  -0.345  -0.342  -0.339  -0.336  -0.332
 -0.331  -0.330  -0.328  -0.324  -0.322  -0.321  -0.319  -0.318
 -0.315  -0.311  -0.306  -0.301  -0.300  -0.297  -0.295  -0.293
 -0.291  -0.288  -0.284  -0.283  -0.281  -0.280  -0.271  -0.268
 -0.265  -0.255  -0.253  -0.250  -0.242  -0.242  -0.232  -0.214
 -0.195  -0.177  -0.157  -0.140
 -- Virtual --
 -0.077  -0.056  -0.031  -0.007   0.015   0.035   0.051   0.060
  0.062   0.063   0.064   0.069   0.070   0.075   0.075   0.077
  0.082   0.090   0.095   0.096   0.097   0.099   0.100   0.101
  0.106   0.110   0.117   0.121   0.122   0.125   0.127   0.127
  0.129   0.131   0.134   0.136   0.137   0.140   0.143   0.145
  0.146   0.149   0.151   0.155   0.158   0.161   0.164   0.165
  0.167   0.171   0.174   0.178   0.181   0.184   0.185   0.188
  0.189   0.195   0.199   0.201   0.204   0.207   0.211   0.218
  0.221   0.225   0.225   0.236   0.240   0.245   0.250   0.255
  0.259   0.261   0.268   0.284   0.288   0.300   0.307   0.315
  0.330   0.334   0.336   0.346   0.351   0.354   0.356   0.366
  0.376   0.390   0.396   0.397   0.413   0.422   0.442   0.456
  0.483   0.484   0.486   0.488   0.491   0.495   0.498   0.503
  0.505   0.508   0.513   0.516   0.521   0.524   0.525   0.528
  0.532   0.533   0.542   0.545   0.546   0.549   0.553   0.555
  0.557   0.562   0.563   0.566   0.567   0.574   0.580   0.583
  0.586   0.595   0.598   0.602   0.602   0.608   0.611   0.612
  0.617   0.619   0.623   0.623   0.629   0.631   0.635   0.639
  0.641   0.644   0.647   0.652   0.660   0.667   0.669   0.674
  0.676   0.683   0.684   0.689   0.694   0.705   0.707   0.711
  0.712   0.718   0.721   0.726   0.736   0.749   0.758   0.759
  0.767   0.768   0.774   0.776   0.778   0.781   0.786   0.790
  0.800   0.801   0.805   0.811   0.819   0.824   0.830   0.836
  0.843   0.848   0.849   0.853   0.855   0.857   0.861   0.864
  0.867   0.868   0.869   0.873   0.876   0.881   0.885   0.887
  0.889   0.890   0.895   0.899   0.902   0.906   0.909   0.916
  0.917   0.920   0.922   0.927   0.928   0.930   0.934   0.939
  0.940   0.944   0.946   0.952   0.954   0.957   0.959   0.963
  0.968   0.977   0.981   0.985   0.989   0.998   1.010   1.024
  1.036   1.043   1.051   1.055   1.061   1.065   1.070   1.089
  1.101   1.110   1.117   1.135   1.139   1.146   1.159   1.165
  1.168   1.176   1.183   1.203   1.206   1.211   1.220   1.224
  1.231   1.245   1.264   1.269   1.276   1.292   1.296   1.308
  1.311   1.317   1.319   1.327   1.350   1.382   1.401   1.423
  1.445   1.457   1.468   1.489   1.510   1.518   1.535   1.563
  1.574   1.617   1.649   1.668   1.686   1.741   1.837   2.012
 --------------------------------------------------------------
 
          Ground-State Mulliken Net Atomic Charges

     Atom                 Charge (a.u.)
  ----------------------------------------
      1 C                    -0.092909
      2 C                    -0.092240
      3 C                    -0.094939
      4 C                    -0.092846
      5 C                    -0.074026
      6 C                    -0.154727
      7 H                     0.090966
      8 H                     0.090237
      9 H                     0.103638
     10 C                     0.100056
     11 H                     0.095357
     12 C                     0.086859
     13 C                    -0.275795
     14 C                    -0.214603
     15 H                     0.110593
     16 H                     0.120583
     17 C                    -0.203457
     18 H                     0.114177
     19 H                     0.098264
     20 C                    -0.002195
     21 H                     0.095988
     22 H                     0.103573
     23 C                    -0.439978
     24 H                     0.138270
     25 H                     0.125941
     26 H                     0.121981
     27 C                    -0.365606
     28 H                     0.120711
     29 H                     0.112157
     30 H                     0.117273
     31 C                    -0.354195
     32 H                     0.116177
     33 H                     0.109673
     34 H                     0.108571
     35 C                    -0.092602
     36 C                    -0.092755
     37 C                    -0.092721
     38 C                    -0.092538
     39 H                     0.091026
     40 H                     0.090992
     41 H                     0.090767
     42 C                    -0.092923
     43 C                    -0.092459
     44 C                    -0.093533
     45 C                    -0.091051
     46 H                     0.091117
     47 H                     0.090597
     48 C                    -0.095616
     49 C                    -0.093290
     50 H                     0.089787
     51 C                    -0.069076
     52 H                     0.091076
     53 H                     0.090903
     54 H                     0.089212
     55 H                     0.091074
     56 H                     0.091017
     57 H                     0.089965
     58 C                    -0.159290
     59 H                     0.092561
     60 C                     0.127238
     61 H                     0.089238
     62 C                     0.064025
     63 C                    -0.272654
     64 C                    -0.212480
     65 H                     0.103937
     66 H                     0.125916
     67 C                    -0.006341
     68 C                    -0.443456
     69 H                     0.117106
     70 H                     0.143123
     71 H                     0.143160
     72 C                    -0.362922
     73 H                     0.122432
     74 H                     0.117379
     75 H                     0.107817
     76 C                    -0.370289
     77 H                     0.116710
     78 H                     0.113261
     79 H                     0.115249
     80 C                    -0.207416
     81 H                     0.111923
     82 H                     0.100062
     83 H                     0.109122
     84 H                     0.102095
  ----------------------------------------
  Sum of atomic charges =    -0.000000

 -----------------------------------------------------------------
                    Cartesian Multipole Moments
 -----------------------------------------------------------------
    Charge (ESU x 10^10)
                -0.0000
    Dipole Moment (Debye)
         X      -0.2023      Y       0.0718      Z      -0.1801
       Tot       0.2802
    Quadrupole Moments (Debye-Ang)
        XX    -184.0970     XY      -7.5877     YY    -209.1847
        XZ       1.3078     YZ      -4.6060     ZZ    -230.7565
    Octopole Moments (Debye-Ang^2)
       XXX     -63.8216    XXY       6.3300    XYY      -2.3879
       YYY       4.2332    XXZ     -20.1091    XYZ       9.7288
       YYZ      -1.2080    XZZ      -0.0613    YZZ      -2.3497
       ZZZ      -2.3132
    Hexadecapole Moments (Debye-Ang^3)
      XXXX -133335.6912   XXXY   -1212.0303   XXYY  -23425.9936
      XYYY     -84.3758   YYYY   -2242.0509   XXXZ     257.2525
      XXYZ    -194.1875   XYYZ       3.3068   YYYZ     -15.1307
      XXZZ  -24403.0321   XYZZ     -36.3095   YYZZ    -530.1224
      XZZZ      16.7269   YZZZ      -0.6225   ZZZZ    -927.7611
 -----------------------------------------------------------------
 Calculating analytic gradient of the SCF energy
 Gradient of SCF Energy
            1           2           3           4           5           6
    1   0.0436794  -0.0433279   0.0418352  -0.0418010   0.0323277  -0.0388480
    2  -0.0156558   0.0153833  -0.0157764   0.0131357  -0.0163350   0.0086496
    3   0.0028829  -0.0029597   0.0028167  -0.0016908   0.0014894  -0.0038952
            7           8           9          10          11          12
    1  -0.0034759   0.0034815   0.0027874   0.0097307  -0.0034675   0.0072954
    2  -0.0050237   0.0050897   0.0054502   0.0042484  -0.0075276  -0.0126421
    3   0.0012128  -0.0011742  -0.0020175   0.0018072   0.0031678   0.0052435
           13          14          15          16          17          18
    1  -0.0015783  -0.0143535   0.0074956  -0.0045253  -0.0060948  -0.0007018
    2   0.0073451   0.0042801   0.0044757   0.0012928  -0.0031630   0.0034038
    3   0.0090961   0.0006045  -0.0032904   0.0012676  -0.0073632  -0.0009989
           19          20          21          22          23          24
    1   0.0013441   0.0011133   0.0052080   0.0016207  -0.0002984   0.0008594
    2  -0.0031203  -0.0037520   0.0003167  -0.0059245   0.0014891  -0.0011788
    3   0.0025745  -0.0075221  -0.0002819   0.0010037   0.0101113  -0.0076184
           25          26          27          28          29          30
    1   0.0028311  -0.0035974  -0.0041496   0.0006092   0.0024174  -0.0024231
    2   0.0001569   0.0053840  -0.0089032  -0.0020645   0.0022663   0.0018430
    3   0.0045016  -0.0044158   0.0091827  -0.0029217   0.0013658  -0.0008499
           31          32          33          34          35          36
    1   0.0087869  -0.0007338  -0.0027858   0.0018787  -0.0439849   0.0441219
    2  -0.0062948  -0.0040425   0.0024675   0.0035586   0.0154912  -0.0155677
    3  -0.0095387   0.0026287  -0.0013958   0.0016824  -0.0028605   0.0028461
           37          38          39          40          41          42
    1  -0.0442137   0.0442332  -0.0034893   0.0034861   0.0034785  -0.0442161
    2   0.0155094  -0.0155465  -0.0050201   0.0050160   0.0050141   0.0155505
    3  -0.0028955   0.0028630   0.0011781  -0.0011921  -0.0012083  -0.0029206
           43          44          45          46          47          48
    1   0.0441431  -0.0439319   0.0438756   0.0035023  -0.0034946  -0.0414582
    2  -0.0155251   0.0155812  -0.0153839   0.0050349  -0.0050223   0.0154759
    3   0.0028759  -0.0029477   0.0028536  -0.0011495   0.0011486  -0.0029464
           49          50          51          52          53          54
    1   0.0444156  -0.0034642  -0.0341631   0.0034906  -0.0034932   0.0034610
    2  -0.0110388  -0.0051831   0.0162971   0.0050284  -0.0050224   0.0055301
    3   0.0019844   0.0011682  -0.0034991  -0.0011806   0.0011648  -0.0012328
           55          56          57          58          59          60
    1   0.0034928  -0.0034865  -0.0033668   0.0483714  -0.0003635  -0.0217096
    2   0.0050312  -0.0050238  -0.0052332  -0.0102881  -0.0127217   0.0051314
    3  -0.0011650   0.0011947   0.0013744   0.0006071   0.0027338   0.0059164
           61          62          63          64          65          66
    1   0.0059957   0.0022735  -0.0001060   0.0070798  -0.0051715   0.0000013
    2   0.0113388   0.0012424  -0.0119523   0.0061073   0.0021299   0.0005357
    3  -0.0023836  -0.0062199   0.0006059   0.0156522  -0.0025801  -0.0049435
           67          68          69          70          71          72
    1  -0.0004351   0.0001837   0.0006134  -0.0061806  -0.0065286   0.0037226
    2   0.0029613  -0.0079482   0.0051686  -0.0028817   0.0003061   0.0026384
    3  -0.0032166  -0.0003774  -0.0013359  -0.0063488   0.0070519  -0.0158869
           73          74          75          76          77          78
    1   0.0006170   0.0029208  -0.0027237  -0.0071420   0.0003308  -0.0023313
    2  -0.0025832   0.0008958  -0.0015615   0.0080526   0.0012263  -0.0047297
    3   0.0039495   0.0031551   0.0009666   0.0045170  -0.0050530   0.0021760
           79          80          81          82          83          84
    1   0.0016635   0.0100770   0.0060708  -0.0029785  -0.0036312  -0.0026973
    2  -0.0011884   0.0061956   0.0013191  -0.0011655   0.0038569  -0.0019116
    3   0.0041539   0.0085795  -0.0016766  -0.0020975  -0.0085497   0.0004462
 Max gradient component =       4.837E-02
 RMS gradient           =       1.288E-02
 Gradient time:  CPU 39.32 s  wall 10.16 s
 Geometry Optimization Parameters
   NAtoms,    NIC,     NZ,  NCons,   NDum,   NFix, NCnnct, MaxDiis
       84     613       0       0       0       0       0       0


** GEOMETRY OPTIMIZATION IN DELOCALIZED INTERNAL COORDINATES **
   Searching for a Minimum

   Optimization Cycle:   1

                       Coordinates (Angstroms)
     ATOM                X               Y               Z
      1  C         4.3633490254   -0.2456839049   -0.0173904213
      2  C         5.4997217697    0.4412897283   -0.1938466714
      3  C         6.8154249787   -0.2184258199   -0.0621026755
      4  C         7.9518380286    0.4682205085   -0.2409704286
      5  C         9.2693625356   -0.1912037609   -0.1096489612
      6  C        10.4077284321    0.5078709614   -0.2657836983
      7  H         5.4582118079    1.5003921472   -0.4380291006
      8  H         6.8566330831   -1.2771934786    0.1835154827
      9  H         9.2851669015   -1.2397140822    0.1602997951
     10  C        11.8080360878   -0.0308299833   -0.1084444736
     11  H        10.2982338355    1.5746330003   -0.4294756601
     12  C        12.1916261101   -1.3128223449   -0.4573202233
     13  C        13.6180847439   -1.8075615549   -0.2707246210
     14  C        14.6449466845   -0.6911524347   -0.1189002138
     15  H        13.9462622308   -2.4105722639   -1.1455191220
     16  H        13.6236646863   -2.4770734016    0.6168838033
     17  C        14.1491330031    0.2751423229    0.9327487237
     18  H        14.7959053061   -0.1640013906   -1.0829227432
     19  H        15.6195518245   -1.1349949088    0.1785742995
     20  C        12.8350923009    0.9741589613    0.4806177304
     21  H        14.9271192791    1.0344998407    1.1686793144
     22  H        13.9766119576   -0.3181753180    1.8602784768
     23  C        11.3029044571   -2.3439996449   -1.1261682143
     24  H        10.3301174149   -1.9802778903   -1.4864867386
     25  H        11.1671660329   -3.2197409920   -0.4575882974
     26  H        11.7973454136   -2.6898016841   -2.0584355771
     27  C        13.1420258613    2.0609015509   -0.5785634717
     28  H        13.5384517716    1.6188206924   -1.5148087831
     29  H        13.8903641024    2.7850019958   -0.1903000341
     30  H        12.2350351173    2.6393874205   -0.8475990785
     31  C        12.2670405610    1.6666736302    1.7444746655
     32  H        12.0120419369    0.9137976209    2.5215084086
     33  H        11.3516592822    2.2534047830    1.5235551467
     34  H        13.0107846552    2.3734899255    2.1730233992
     35  C         3.0477217175    0.4142379730   -0.1491473441
     36  C         1.9111659004   -0.2730757113    0.0248135002
     37  C         0.5956700932    0.3871044486   -0.1070538669
     38  C        -0.5410771904   -0.3005431903    0.0643126153
     39  H         0.5546741090    1.4471537749   -0.3472147425
     40  H         1.9523238130   -1.3327744737    0.2664768352
     41  H         4.4047547353   -1.3049065625    0.2262952442
     42  C        -1.8564224994    0.3599206430   -0.0677208232
     43  C        -2.9933621620   -0.3280522346    0.1010226054
     44  C        -4.3085519306    0.3326846299   -0.0311315028
     45  C        -5.4456764908   -0.3556108670    0.1350591372
     46  H        -5.4052209309   -1.4166979622    0.3706140410
     47  H        -4.3489936855    1.3936725608   -0.2671979491
     48  C        -6.7607802552    0.3054205551    0.0028279636
     49  C        -7.8988213347   -0.3834547416    0.1666828115
     50  H        -6.7997383288    1.3668430741   -0.2312750360
     51  C        -9.2202191173    0.2760135919    0.0349053890
     52  H        -0.5001917200   -1.3607087440    0.3039188939
     53  H        -1.8971448219    1.4204433912   -0.3058122108
     54  H        -7.8519891970   -1.4447912127    0.4001363427
     55  H        -2.9527555686   -1.3886981588    0.3385957898
     56  H         3.0064676785    1.4738148881   -0.3913395581
     57  H         7.9080391096    1.5266814382   -0.4874498051
     58  C       -10.3568719506   -0.4311413649    0.2022284783
     59  H        -9.1942563719    1.3210429269   -0.1926561138
     60  C       -11.8110688264    0.0153848989    0.1211237317
     61  H       -10.1803827512   -1.4694582089    0.4322817110
     62  C       -12.2501617503    1.2949417192   -0.1856725496
     63  C       -13.7504576844    1.5613835178   -0.3274589697
     64  C       -14.2910509512    0.4857507783   -1.2519544079
     65  H       -13.9498289512    2.5593116843   -0.7720446138
     66  H       -14.2992467062    1.5552393441    0.6266456657
     67  C       -12.9199174617   -1.0482348235    0.3935932721
     68  C       -11.3515396809    2.4652893478   -0.4993270926
     69  H       -11.9235367325    3.3842846150   -0.7421487326
     70  H       -10.7346482331    2.2415973943   -1.3940717068
     71  H       -10.7370658997    2.7171166985    0.3895567575
     72  C       -13.4348686911   -0.8301846738    1.8453439581
     73  H       -13.8296105937    0.1711198829    2.0653456769
     74  H       -12.6044548715   -0.9909424058    2.5671784927
     75  H       -14.2397264327   -1.5565317289    2.0916347106
     76  C       -12.4508145835   -2.5274533049    0.3542893452
     77  H       -12.0069690806   -2.7692864793   -0.6355160688
     78  H       -13.3115760470   -3.2127228687    0.5177029929
     79  H       -11.7161060715   -2.7634914567    1.1526058821
     80  C       -14.0880900836   -0.9208564853   -0.6514198820
     81  H       -13.6938832981    0.5649415903   -2.1900323108
     82  H       -15.3557383452    0.6355958128   -1.5321337113
     83  H       -13.9376944199   -1.5862820410   -1.5311705130
     84  H       -15.0225449072   -1.2760663179   -0.1638394412
   Point Group: c1    Number of degrees of freedom:   246


   Energy is  -1399.509904791


 Attempting to Generate Delocalized Internal Coordinates

246 Hessian modes will be used to form the next step
  Hessian Eigenvalues:
     0.002000    0.002258    0.002689    0.002796    0.003383    0.004028
     0.006088    0.006964    0.007880    0.008044    0.008053    0.008457
     0.009508    0.010043    0.010687    0.011469    0.011543    0.011934
     0.012113    0.012121    0.012121    0.012122    0.012123    0.012126
     0.013261    0.014096    0.017280    0.018951    0.020882    0.021046
     0.021164    0.021186    0.021263    0.021302    0.021303    0.021308
     0.021308    0.021309    0.021309    0.021309    0.021309    0.021309
     0.021309    0.021311    0.027386    0.029141    0.029685    0.030298
     0.030378    0.030402    0.030402    0.030402    0.030402    0.030402
     0.031016    0.031122    0.032054    0.040013    0.045121    0.046816
     0.047412    0.049064    0.049492    0.050023    0.052475    0.052532
     0.053547    0.053678    0.053923    0.054258    0.054582    0.054944
     0.054980    0.055315    0.055517    0.060457    0.063423    0.065767
     0.067686    0.068079    0.072703    0.073321    0.075100    0.075111
     0.077308    0.078026    0.081893    0.082538    0.083909    0.087936
     0.095326    0.097770    0.099240    0.119468    0.120465    0.131393
     0.133164    0.159000    0.159601    0.159892    0.159999    0.160000
     0.160000    0.160000    0.160000    0.160000    0.160000    0.160000
     0.160000    0.160000    0.160000    0.160000    0.160000    0.160000
     0.160000    0.160000    0.160000    0.160000    0.160000    0.160000
     0.160000    0.160000    0.160000    0.160000    0.160000    0.160000
     0.160000    0.160000    0.160000    0.160000    0.160000    0.160000
     0.160000    0.160000    0.166821    0.185402    0.193351    0.213263
     0.220000    0.220000    0.220000    0.220000    0.220000    0.220000
     0.220000    0.220000    0.220000    0.220000    0.220000    0.220000
     0.220000    0.220000    0.220000    0.220000    0.220027    0.220141
     0.227268    0.249038    0.249465    0.249988    0.249994    0.252874
     0.260606    0.264222    0.270662    0.271696    0.274551    0.274816
     0.277310    0.278003    0.286688    0.290606    0.292887    0.296776
     0.300444    0.301524    0.306824    0.314935    0.315003    0.320928
     0.321286    0.322562    0.323418    0.323578    0.323623    0.323871
     0.323924    0.323960    0.324089    0.324132    0.324325    0.324460
     0.324529    0.324584    0.324853    0.325445    0.325489    0.325657
     0.325882    0.326448    0.326473    0.326534    0.326671    0.326996
     0.327168    0.327415    0.336057    0.337608    0.338419    0.342639
     0.346643    0.348206    0.348272    0.348278    0.348280    0.348290
     0.348319    0.350778    0.350813    0.350814    0.350815    0.350816
     0.350817    0.350818    0.350820    0.350822    0.350829    0.350832
     0.350839    0.350842    0.350879    0.354219    0.356559    0.362319
     0.372511    0.457742    0.469542    0.552154    0.561042    0.571269
     0.572626    0.573036    0.573036    0.573037    0.573044    0.573044

 Minimum Search - Taking Simple RFO Step
 Searching for Lamda that Minimizes Along All modes
 Value Taken    Lamda =  -0.06385523
 Calculated Step too Large.  Step scaled by  0.672076
 Step Taken.  Stepsize is  0.300000

                             Maximum     Tolerance    Cnvgd?
         Gradient           0.075183      0.000300      NO
         Displacement       0.115554      0.001200      NO
         Energy change     *********      0.000001      NO


 New Cartesian Coordinates Obtained by Inverse Iteration

 Displacement from previous Coordinates is:  2.456633
 ----------------------------------------------------------------
             Standard Nuclear Orientation (Angstroms)
    I     Atom           X                Y                Z
 ----------------------------------------------------------------
    1      C       4.4024468180    -0.2877342384     0.0947928022
    2      C       5.5732346819     0.3841043409    -0.0985901525
    3      C       6.8890546640    -0.2539192642     0.0184451482
    4      C       8.0564999560     0.4193072854    -0.1858648101
    5      C       9.3760389124    -0.2184032160    -0.0751334582
    6      C      10.5346725100     0.4737481141    -0.2656660759
    7      H       5.5465259650     1.4448365069    -0.3566271446
    8      H       6.9173561193    -1.3145176797     0.2770164666
    9      H       9.3880956931    -1.2681318262     0.2094072663
   10      C      11.9360331023    -0.0377637802    -0.1459431584
   11      H      10.4322619873     1.5459722510    -0.4404459151
   12      C      12.3394968565    -1.3065812685    -0.5161259775
   13      C      13.7852380092    -1.7787173597    -0.3618305624
   14      C      14.7976333791    -0.6312519204    -0.2136939624
   15      H      14.0855091177    -2.3838761832    -1.2423834514
   16      H      13.8320049207    -2.4534272261     0.5203706605
   17      C      14.2894729072     0.3365998711     0.8556336320
   18      H      14.9181851448    -0.1041198429    -1.1795040103
   19      H      15.7883056681    -1.0464424897     0.0605317173
   20      C      12.9440953350     1.0051718400     0.4309033475
   21      H      15.0404038600     1.1209005182     1.0809574011
   22      H      14.1398739923    -0.2472983918     1.7889665108
   23      C      11.4596292261    -2.3556426519    -1.1797455722
   24      H      10.4727773378    -1.9982223319    -1.5025318032
   25      H      11.3405362014    -3.2412228762    -0.5244781364
   26      H      11.9484930265    -2.6987764640    -2.1154683795
   27      C      13.2085454148     2.1096375158    -0.6368331741
   28      H      13.6062697599     1.6854787694    -1.5770363936
   29      H      13.9377099710     2.8523637768    -0.2567276099
   30      H      12.2837293964     2.6601383723    -0.8917288914
   31      C      12.3638901098     1.6850291022     1.7087971486
   32      H      12.1399153605     0.9316111997     2.4886650451
   33      H      11.4318319358     2.2428137345     1.5007463985
   34      H      13.0919236416     2.4090496518     2.1255382853
   35      C       3.0890004562     0.3529926376    -0.0295164114
   36      C       1.9153792617    -0.3173158270     0.1531378248
   37      C       0.6041890369     0.3263399908     0.0218802072
   38      C      -0.5719959969    -0.3424169285     0.1938593963
   39      H       0.5852256208     1.3890061975    -0.2287786042
   40      H       1.9362412490    -1.3797660896     0.4045458074
   41      H       4.4271864943    -1.3492379822     0.3498145910
   42      C      -1.8810338389     0.3041620187     0.0558871963
   43      C      -3.0595613096    -0.3630461236     0.2174025868
   44      C      -4.3665574809     0.2864114531     0.0730705967
   45      C      -5.5471425915    -0.3792979393     0.2244320834
   46      H      -5.5369879934    -1.4444923452     0.4646145690
   47      H      -4.3783556590     1.3509495021    -0.1699549233
   48      C      -6.8521612364     0.2731545269     0.0740053460
   49      C      -8.0342847280    -0.3913460581     0.2156917523
   50      H      -6.8596785355     1.3386708335    -0.1652727297
   51      C      -9.3403514946     0.2673398856     0.0587346967
   52      H      -0.5548777308    -1.4058066685     0.4415402624
   53      H      -1.8963236847     1.3677784514    -0.1909492011
   54      H      -8.0228862073    -1.4578086660     0.4522494097
   55      H      -3.0460308939    -1.4273654858     0.4613351905
   56      H       3.0662285824     1.4147013248    -0.2839098734
   57      H       8.0243604362     1.4790572650    -0.4480723746
   58      C     -10.5120560753    -0.4226031530     0.1987039729
   59      H      -9.2949238935     1.3218097787    -0.1723296861
   60      C     -11.9312449322     0.0348047599     0.0820218420
   61      H     -10.3848868008    -1.4755779148     0.4355947099
   62      C     -12.3400577702     1.3196231481    -0.2307526024
   63      C     -13.8378561824     1.5945799482    -0.4115981129
   64      C     -14.3906091138     0.5058286346    -1.3465648421
   65      H     -14.0054934511     2.5956162866    -0.8534642979
   66      H     -14.3987364366     1.5960840683     0.5398974180
   67      C     -13.0518535667    -1.0271464571     0.3397414610
   68      C     -11.4027299138     2.4811626030    -0.5122901077
   69      H     -11.9609386136     3.4010493582    -0.7659091333
   70      H     -10.7477914109     2.2634790807    -1.3784618027
   71      H     -10.7937054784     2.7262480267     0.3798349731
   72      C     -13.6038195907    -0.7941018315     1.7856536917
   73      H     -14.0019821997     0.2151031109     1.9680686204
   74      H     -12.7941389529    -0.9470569172     2.5266960975
   75      H     -14.4132436422    -1.5149199551     2.0196650577
   76      C     -12.5691990475    -2.5083432335     0.3066245174
   77      H     -12.1044354336    -2.7563068958    -0.6674617829
   78      H     -13.4315492746    -3.1882646468     0.4515313554
   79      H     -11.8501198053    -2.7399060163     1.1149128373
   80      C     -14.2078624193    -0.9058632747    -0.7272596999
   81      H     -13.7914803662     0.5661975881    -2.2795665596
   82      H     -15.4474667716     0.6707969826    -1.6360507816
   83      H     -14.0379345023    -1.5975672407    -1.5781060794
   84      H     -15.1467553265    -1.2486182575    -0.2457587270
 ----------------------------------------------------------------
 Molecular Point Group                 C1    NOp =  1
 Largest Abelian Subgroup              C1    NOp =  1
 Nuclear Repulsion Energy =  2905.7525654726 hartrees
 There are      132 alpha and      132 beta electrons
 Applying Cartesian multipole field
    Component          Value
    ---------          -----
     (2,0,0)        1.00000E-12
     (0,2,0)        2.00000E-11
     (0,0,2)       -3.00000E-11
 Nucleus-field energy     =     0.0000001180 hartrees
 Requested basis set is 6-31G
 There are 204 shells and 420 basis functions
 A cutoff of  1.0D-11 yielded   6529 shell pairs
 There are     30052 function pairs
 Smallest overlap matrix eigenvalue = 1.70E-03
 Guess MOs from SCF MO coefficient file

 -----------------------------------------------------------------------
  General SCF calculation program by
  Eric Jon Sundstrom, Paul Horn, Yuezhi Mao, Dmitri Zuev, Alec White,
  David Stuck, Shaama M.S., Shane Yost, Joonho Lee, David Small,
  Daniel Levine, Susi Lehtola, Hugh Burton, Evgeny Epifanovsky
 -----------------------------------------------------------------------
 Exchange:  B88      Correlation:  LYP
 Using SG-1 standard quadrature grid
 using 4 threads for integral computing
 -------------------------------------------------------
 OpenMP Integral computing Module                
 Release: version 1.0, May 2013, Q-Chem Inc. Pittsburgh 
 -------------------------------------------------------
 -------------------------------------------------------
 OpenMP BLAS3 based DFT computing Module                
 Release: version 1.0, May 2013, Q-Chem Inc. Pittsburgh 
 -------------------------------------------------------
 A restricted SCF calculation will be
 performed using DIIS
 SCF converges when DIIS error is below 1.0e-08
 ---------------------------------------
  Cycle       Energy         DIIS error
 ---------------------------------------
    1   -1399.5318919351      4.35e-04  
    2   -1399.5408312654      1.11e-04  
    3   -1399.5405392333      1.54e-04  
    4   -1399.5410516364      5.91e-05  
    5   -1399.5411463244      1.48e-05  
    6   -1399.5411508544      9.71e-06  
    7   -1399.5411536727      2.34e-06  
    8   -1399.5411538079      6.51e-07  
    9   -1399.5411538205      2.24e-07  
   10   -1399.5411538218      9.20e-08  
   11   -1399.5411538220      3.34e-08  
   12   -1399.5411538220      1.40e-08  
   13   -1399.5411538220      3.84e-09  Convergence criterion met
 ---------------------------------------
 SCF time:   CPU 256.36s  wall 65.00s 
 SCF   energy in the final basis set =    -1399.5411538220
 Total energy in the final basis set =    -1399.5411538220
 
 --------------------------------------------------------------
 
                    Orbital Energies (a.u.)
 --------------------------------------------------------------
 
 Alpha MOs
 -- Occupied --
 -9.934  -9.931  -9.924  -9.924  -9.920  -9.920  -9.919  -9.919
 -9.919  -9.919  -9.919  -9.919  -9.919  -9.919  -9.918  -9.918
 -9.918  -9.918  -9.918  -9.917  -9.917  -9.917  -9.916  -9.914
 -9.914  -9.914  -9.913  -9.912  -9.910  -9.909  -9.907  -9.907
 -9.905  -9.904  -9.902  -9.901  -0.756  -0.756  -0.736  -0.731
 -0.723  -0.712  -0.700  -0.697  -0.697  -0.688  -0.676  -0.665
 -0.652  -0.637  -0.622  -0.609  -0.603  -0.601  -0.598  -0.595
 -0.592  -0.561  -0.543  -0.528  -0.515  -0.505  -0.501  -0.500
 -0.494  -0.492  -0.488  -0.482  -0.480  -0.476  -0.436  -0.435
 -0.421  -0.418  -0.413  -0.410  -0.406  -0.401  -0.392  -0.391
 -0.385  -0.382  -0.375  -0.370  -0.367  -0.366  -0.362  -0.359
 -0.354  -0.353  -0.352  -0.346  -0.341  -0.339  -0.338  -0.334
 -0.332  -0.330  -0.328  -0.325  -0.321  -0.320  -0.317  -0.316
 -0.314  -0.309  -0.304  -0.300  -0.299  -0.297  -0.296  -0.294
 -0.292  -0.290  -0.288  -0.286  -0.282  -0.280  -0.271  -0.268
 -0.265  -0.256  -0.255  -0.250  -0.245  -0.244  -0.232  -0.214
 -0.196  -0.177  -0.157  -0.138
 -- Virtual --
 -0.085  -0.061  -0.035  -0.010   0.012   0.032   0.049   0.060
  0.062   0.062   0.065   0.069   0.071   0.075   0.077   0.080
  0.083   0.090   0.095   0.096   0.097   0.099   0.100   0.101
  0.106   0.111   0.117   0.122   0.122   0.125   0.126   0.127
  0.130   0.131   0.135   0.137   0.138   0.140   0.143   0.144
  0.146   0.150   0.152   0.155   0.158   0.161   0.164   0.165
  0.166   0.170   0.172   0.175   0.178   0.183   0.184   0.185
  0.187   0.194   0.195   0.197   0.203   0.206   0.208   0.214
  0.220   0.221   0.223   0.230   0.237   0.242   0.246   0.251
  0.254   0.256   0.264   0.280   0.284   0.305   0.308   0.311
  0.333   0.334   0.337   0.348   0.354   0.358   0.358   0.364
  0.374   0.380   0.382   0.385   0.401   0.416   0.438   0.448
  0.480   0.483   0.486   0.487   0.490   0.494   0.496   0.499
  0.502   0.506   0.509   0.514   0.519   0.520   0.523   0.529
  0.531   0.533   0.537   0.540   0.544   0.548   0.552   0.553
  0.555   0.558   0.559   0.563   0.565   0.570   0.578   0.581
  0.586   0.595   0.598   0.600   0.601   0.604   0.605   0.609
  0.610   0.614   0.617   0.619   0.620   0.624   0.630   0.635
  0.635   0.637   0.641   0.644   0.646   0.652   0.659   0.666
  0.672   0.673   0.680   0.685   0.692   0.701   0.702   0.709
  0.710   0.716   0.717   0.723   0.733   0.750   0.757   0.758
  0.767   0.770   0.772   0.775   0.777   0.781   0.783   0.791
  0.797   0.800   0.802   0.809   0.816   0.822   0.828   0.832
  0.840   0.845   0.847   0.850   0.852   0.856   0.858   0.861
  0.865   0.867   0.871   0.872   0.876   0.881   0.885   0.885
  0.888   0.891   0.895   0.900   0.902   0.905   0.910   0.915
  0.917   0.920   0.921   0.926   0.928   0.931   0.934   0.939
  0.939   0.944   0.946   0.953   0.955   0.957   0.960   0.963
  0.968   0.977   0.981   0.984   0.990   1.000   1.007   1.022
  1.029   1.036   1.040   1.045   1.049   1.055   1.062   1.077
  1.096   1.102   1.111   1.122   1.130   1.132   1.145   1.155
  1.173   1.178   1.182   1.192   1.201   1.202   1.214   1.221
  1.223   1.239   1.256   1.262   1.275   1.287   1.295   1.305
  1.313   1.316   1.318   1.322   1.344   1.377   1.401   1.419
  1.437   1.449   1.458   1.475   1.495   1.505   1.524   1.563
  1.566   1.612   1.642   1.658   1.681   1.730   1.819   2.004
 --------------------------------------------------------------
 
          Ground-State Mulliken Net Atomic Charges

     Atom                 Charge (a.u.)
  ----------------------------------------
      1 C                    -0.093376
      2 C                    -0.093494
      3 C                    -0.095050
      4 C                    -0.095650
      5 C                    -0.071642
      6 C                    -0.159387
      7 H                     0.090619
      8 H                     0.089941
      9 H                     0.101205
     10 C                     0.096627
     11 H                     0.096106
     12 C                     0.090700
     13 C                    -0.276242
     14 C                    -0.214980
     15 H                     0.110785
     16 H                     0.121521
     17 C                    -0.205663
     18 H                     0.114687
     19 H                     0.099300
     20 C                     0.003376
     21 H                     0.097056
     22 H                     0.104921
     23 C                    -0.440574
     24 H                     0.138733
     25 H                     0.127509
     26 H                     0.122805
     27 C                    -0.367949
     28 H                     0.121700
     29 H                     0.113394
     30 H                     0.118029
     31 C                    -0.357378
     32 H                     0.117679
     33 H                     0.112108
     34 H                     0.109439
     35 C                    -0.093987
     36 C                    -0.093095
     37 C                    -0.094121
     38 C                    -0.092881
     39 H                     0.090852
     40 H                     0.090875
     41 H                     0.090593
     42 C                    -0.094356
     43 C                    -0.092769
     44 C                    -0.095262
     45 C                    -0.091183
     46 H                     0.090626
     47 H                     0.090221
     48 C                    -0.096830
     49 C                    -0.095195
     50 H                     0.089039
     51 C                    -0.069057
     52 H                     0.090954
     53 H                     0.090676
     54 H                     0.088872
     55 H                     0.090881
     56 H                     0.090836
     57 H                     0.089626
     58 C                    -0.160825
     59 H                     0.092403
     60 C                     0.122443
     61 H                     0.089266
     62 C                     0.071646
     63 C                    -0.275698
     64 C                    -0.211201
     65 H                     0.103955
     66 H                     0.126460
     67 C                    -0.000244
     68 C                    -0.444215
     69 H                     0.116750
     70 H                     0.144542
     71 H                     0.144285
     72 C                    -0.364803
     73 H                     0.122974
     74 H                     0.118346
     75 H                     0.109274
     76 C                    -0.376094
     77 H                     0.119287
     78 H                     0.113869
     79 H                     0.117980
     80 C                    -0.211057
     81 H                     0.113304
     82 H                     0.101555
     83 H                     0.110314
     84 H                     0.103315
  ----------------------------------------
  Sum of atomic charges =    -0.000000

 -----------------------------------------------------------------
                    Cartesian Multipole Moments
 -----------------------------------------------------------------
    Charge (ESU x 10^10)
                -0.0000
    Dipole Moment (Debye)
         X      -0.2732      Y       0.0513      Z      -0.2337
       Tot       0.3632
    Quadrupole Moments (Debye-Ang)
        XX    -172.0424     XY      -6.9054     YY    -209.3101
        XZ       1.3654     YZ      -4.5112     ZZ    -230.9784
    Octopole Moments (Debye-Ang^2)
       XXX     -71.6624    XXY       0.2690    XYY      -2.0233
       YYY       5.1318    XXZ     -29.8925    XYZ      11.9715
       YYZ      -2.4477    XZZ       0.7716    YZZ      -1.7977
       ZZZ      -9.1757
    Hexadecapole Moments (Debye-Ang^3)
      XXXX -133489.8149   XXXY   -1113.0212   XXYY  -23802.7650
      XYYY     -85.2265   YYYY   -2242.3276   XXXZ     278.1988
      XXYZ    -178.6802   XYYZ       6.5523   YYYZ     -19.9830
      XXZZ  -24864.2631   XYZZ     -30.1417   YYZZ    -531.8387
      XZZZ      33.9745   YZZZ      -7.1189   ZZZZ    -935.2048
 -----------------------------------------------------------------
 Calculating analytic gradient of the SCF energy
 Gradient of SCF Energy
            1           2           3           4           5           6
    1   0.0253704  -0.0248040   0.0238764  -0.0224353   0.0192188  -0.0188778
    2  -0.0122752   0.0120760  -0.0124385   0.0108560  -0.0122194   0.0078028
    3   0.0023548  -0.0022470   0.0021910  -0.0014536   0.0012053  -0.0023565
            7           8           9          10          11          12
    1  -0.0009039   0.0008956   0.0002976   0.0080226  -0.0011508   0.0029860
    2  -0.0030635   0.0030082   0.0036210   0.0030201  -0.0034683  -0.0068667
    3   0.0007020  -0.0007497  -0.0010496  -0.0001113   0.0023997   0.0036451
           13          14          15          16          17          18
    1  -0.0012141  -0.0067708   0.0042413  -0.0029042  -0.0027619  -0.0005823
    2   0.0014912   0.0025215   0.0025412   0.0006728  -0.0001006   0.0016904
    3   0.0050205  -0.0009894  -0.0022003   0.0008153  -0.0020057  -0.0002947
           19          20          21          22          23          24
    1   0.0009477   0.0002674   0.0025213   0.0009106  -0.0001676   0.0010831
    2  -0.0020307  -0.0028554   0.0002995  -0.0032875  -0.0009065  -0.0011097
    3   0.0009374  -0.0050030   0.0003831   0.0002273   0.0073193  -0.0052390
           25          26          27          28          29          30
    1   0.0020033  -0.0024479  -0.0019718   0.0001308   0.0011922  -0.0010536
    2   0.0001691   0.0032181  -0.0046347  -0.0005955   0.0013089   0.0008993
    3   0.0019733  -0.0033239   0.0050114  -0.0017043   0.0002315  -0.0003970
           31          32          33          34          35          36
    1   0.0046809  -0.0003833  -0.0016676   0.0003400  -0.0257022   0.0258802
    2  -0.0033231  -0.0016568   0.0014290   0.0020243   0.0121712  -0.0122270
    3  -0.0045746   0.0014919  -0.0003760   0.0008979  -0.0023066   0.0024292
           37          38          39          40          41          42
    1  -0.0259921   0.0259839  -0.0009329   0.0009086   0.0008887  -0.0259468
    2   0.0122569  -0.0122499  -0.0030463   0.0029830   0.0029863   0.0123674
    3  -0.0024475   0.0025579   0.0006607  -0.0007707  -0.0007892  -0.0025960
           43          44          45          46          47          48
    1   0.0257720  -0.0255766   0.0250863   0.0009924  -0.0009773  -0.0242639
    2  -0.0123005   0.0125284  -0.0123679   0.0030075  -0.0030434   0.0126000
    3   0.0026853  -0.0027478   0.0028018  -0.0007139   0.0006262  -0.0028628
           49          50          51          52          53          54
    1   0.0244176  -0.0010039  -0.0227575   0.0009300  -0.0009547   0.0011808
    2  -0.0099013  -0.0030467   0.0116361   0.0029904  -0.0030443   0.0030560
    3   0.0024370   0.0006120  -0.0029773  -0.0007517   0.0006444  -0.0006985
           55          56          57          58          59          60
    1   0.0009549  -0.0009158  -0.0009517   0.0254247   0.0004667  -0.0153920
    2   0.0029958  -0.0030525  -0.0030562  -0.0077353  -0.0051119   0.0057864
    3  -0.0007319   0.0006805   0.0008178   0.0007850   0.0009788   0.0036773
           61          62          63          64          65          66
    1   0.0014593   0.0030551  -0.0006819   0.0019925  -0.0027642  -0.0003128
    2   0.0039763  -0.0021333  -0.0065047   0.0040336   0.0013875   0.0003941
    3  -0.0006671  -0.0028019   0.0019558   0.0077118  -0.0006653  -0.0023239
           67          68          69          70          71          72
    1   0.0002077   0.0038926   0.0010522  -0.0036527  -0.0041655   0.0018385
    2   0.0018900  -0.0044975   0.0026600  -0.0011182   0.0010169   0.0018668
    3  -0.0032164  -0.0008555  -0.0005920  -0.0038217   0.0038294  -0.0093953
           73          74          75          76          77          78
    1   0.0001414   0.0012423  -0.0015221  -0.0035293   0.0000391  -0.0006759
    2  -0.0010079   0.0006568  -0.0006899   0.0039742   0.0003308  -0.0024569
    3   0.0028776   0.0018125   0.0009215   0.0023578  -0.0025074   0.0012942
           79          80          81          82          83          84
    1   0.0011586   0.0063408   0.0036664  -0.0013969  -0.0026632  -0.0011312
    2  -0.0004468   0.0019844   0.0005263  -0.0013060   0.0023215  -0.0018575
    3   0.0018289   0.0059638  -0.0006783  -0.0026621  -0.0053066   0.0002088
 Max gradient component =       2.599E-02
 RMS gradient           =       7.702E-03
 Gradient time:  CPU 38.69 s  wall 9.98 s
 Geometry Optimization Parameters
   NAtoms,    NIC,     NZ,  NCons,   NDum,   NFix, NCnnct, MaxDiis
       84     613       0       0       0       0       0       0

 Cartesian Hessian Update
 Hessian Updated using BFGS Update


** GEOMETRY OPTIMIZATION IN DELOCALIZED INTERNAL COORDINATES **
   Searching for a Minimum

   Optimization Cycle:   2

                       Coordinates (Angstroms)
     ATOM                X               Y               Z
      1  C         4.4024468180   -0.2877342384    0.0947928022
      2  C         5.5732346819    0.3841043409   -0.0985901525
      3  C         6.8890546640   -0.2539192642    0.0184451482
      4  C         8.0564999560    0.4193072854   -0.1858648101
      5  C         9.3760389124   -0.2184032160   -0.0751334582
      6  C        10.5346725100    0.4737481141   -0.2656660759
      7  H         5.5465259650    1.4448365069   -0.3566271446
      8  H         6.9173561193   -1.3145176797    0.2770164666
      9  H         9.3880956931   -1.2681318262    0.2094072663
     10  C        11.9360331023   -0.0377637802   -0.1459431584
     11  H        10.4322619873    1.5459722510   -0.4404459151
     12  C        12.3394968565   -1.3065812685   -0.5161259775
     13  C        13.7852380092   -1.7787173597   -0.3618305624
     14  C        14.7976333791   -0.6312519204   -0.2136939624
     15  H        14.0855091177   -2.3838761832   -1.2423834514
     16  H        13.8320049207   -2.4534272261    0.5203706605
     17  C        14.2894729072    0.3365998711    0.8556336320
     18  H        14.9181851448   -0.1041198429   -1.1795040103
     19  H        15.7883056681   -1.0464424897    0.0605317173
     20  C        12.9440953350    1.0051718400    0.4309033475
     21  H        15.0404038600    1.1209005182    1.0809574011
     22  H        14.1398739923   -0.2472983918    1.7889665108
     23  C        11.4596292261   -2.3556426519   -1.1797455722
     24  H        10.4727773378   -1.9982223319   -1.5025318032
     25  H        11.3405362014   -3.2412228762   -0.5244781364
     26  H        11.9484930265   -2.6987764640   -2.1154683795
     27  C        13.2085454148    2.1096375158   -0.6368331741
     28  H        13.6062697599    1.6854787694   -1.5770363936
     29  H        13.9377099710    2.8523637768   -0.2567276099
     30  H        12.2837293964    2.6601383723   -0.8917288914
     31  C        12.3638901098    1.6850291022    1.7087971486
     32  H        12.1399153605    0.9316111997    2.4886650451
     33  H        11.4318319358    2.2428137345    1.5007463985
     34  H        13.0919236416    2.4090496518    2.1255382853
     35  C         3.0890004562    0.3529926376   -0.0295164114
     36  C         1.9153792617   -0.3173158270    0.1531378248
     37  C         0.6041890369    0.3263399908    0.0218802072
     38  C        -0.5719959969   -0.3424169285    0.1938593963
     39  H         0.5852256208    1.3890061975   -0.2287786042
     40  H         1.9362412490   -1.3797660896    0.4045458074
     41  H         4.4271864943   -1.3492379822    0.3498145910
     42  C        -1.8810338389    0.3041620187    0.0558871963
     43  C        -3.0595613096   -0.3630461236    0.2174025868
     44  C        -4.3665574809    0.2864114531    0.0730705967
     45  C        -5.5471425915   -0.3792979393    0.2244320834
     46  H        -5.5369879934   -1.4444923452    0.4646145690
     47  H        -4.3783556590    1.3509495021   -0.1699549233
     48  C        -6.8521612364    0.2731545269    0.0740053460
     49  C        -8.0342847280   -0.3913460581    0.2156917523
     50  H        -6.8596785355    1.3386708335   -0.1652727297
     51  C        -9.3403514946    0.2673398856    0.0587346967
     52  H        -0.5548777308   -1.4058066685    0.4415402624
     53  H        -1.8963236847    1.3677784514   -0.1909492011
     54  H        -8.0228862073   -1.4578086660    0.4522494097
     55  H        -3.0460308939   -1.4273654858    0.4613351905
     56  H         3.0662285824    1.4147013248   -0.2839098734
     57  H         8.0243604362    1.4790572650   -0.4480723746
     58  C       -10.5120560753   -0.4226031530    0.1987039729
     59  H        -9.2949238935    1.3218097787   -0.1723296861
     60  C       -11.9312449322    0.0348047599    0.0820218420
     61  H       -10.3848868008   -1.4755779148    0.4355947099
     62  C       -12.3400577702    1.3196231481   -0.2307526024
     63  C       -13.8378561824    1.5945799482   -0.4115981129
     64  C       -14.3906091138    0.5058286346   -1.3465648421
     65  H       -14.0054934511    2.5956162866   -0.8534642979
     66  H       -14.3987364366    1.5960840683    0.5398974180
     67  C       -13.0518535667   -1.0271464571    0.3397414610
     68  C       -11.4027299138    2.4811626030   -0.5122901077
     69  H       -11.9609386136    3.4010493582   -0.7659091333
     70  H       -10.7477914109    2.2634790807   -1.3784618027
     71  H       -10.7937054784    2.7262480267    0.3798349731
     72  C       -13.6038195907   -0.7941018315    1.7856536917
     73  H       -14.0019821997    0.2151031109    1.9680686204
     74  H       -12.7941389529   -0.9470569172    2.5266960975
     75  H       -14.4132436422   -1.5149199551    2.0196650577
     76  C       -12.5691990475   -2.5083432335    0.3066245174
     77  H       -12.1044354336   -2.7563068958   -0.6674617829
     78  H       -13.4315492746   -3.1882646468    0.4515313554
     79  H       -11.8501198053   -2.7399060163    1.1149128373
     80  C       -14.2078624193   -0.9058632747   -0.7272596999
     81  H       -13.7914803662    0.5661975881   -2.2795665596
     82  H       -15.4474667716    0.6707969826   -1.6360507816
     83  H       -14.0379345023   -1.5975672407   -1.5781060794
     84  H       -15.1467553265   -1.2486182575   -0.2457587270
   Point Group: c1    Number of degrees of freedom:   246


   Energy is  -1399.541153822

 Hessian Updated using BFGS Update

206 Hessian modes will be used to form the next step
  Hessian Eigenvalues:
     0.002000    0.002258    0.002689    0.002796    0.003383    0.004028
     0.006087    0.006966    0.007876    0.008052    0.008100    0.008458
     0.009509    0.010043    0.010699    0.011469    0.011562    0.011933
     0.012113    0.012119    0.012121    0.012121    0.012122    0.012125
     0.013261    0.014112    0.017281    0.018944    0.020884    0.021049
     0.021163    0.021187    0.021265    0.021302    0.021304    0.021308
     0.021308    0.021309    0.021309    0.021309    0.021309    0.021309
     0.021311    0.021326    0.027386    0.029142    0.029700    0.030298
     0.030378    0.030402    0.030402    0.030402    0.030402    0.030406
     0.031015    0.031156    0.032074    0.040088    0.045249    0.046828
     0.047408    0.049060    0.049517    0.050016    0.052475    0.052555
     0.053546    0.053678    0.053923    0.054259    0.054583    0.054944
     0.054977    0.055314    0.055535    0.060455    0.063384    0.065609
     0.067701    0.068038    0.072608    0.073309    0.075078    0.075138
     0.077270    0.078064    0.081991    0.082485    0.084068    0.087951
     0.095352    0.097725    0.099393    0.119469    0.120377    0.131492
     0.133204    0.156590    0.159046    0.159614    0.159898    0.159999
     0.160000    0.160000    0.164831    0.167046    0.185458    0.193018
     0.208213    0.213509    0.220000    0.220000    0.220000    0.220026
     0.220134    0.226353    0.227554    0.249127    0.249651    0.249817
     0.252335    0.254604    0.262555    0.264068    0.270420    0.271472
     0.274105    0.274608    0.276858    0.277667    0.284856    0.287039
     0.291196    0.294900    0.297039    0.301454    0.306809    0.312680
     0.315949    0.320383    0.321172    0.322033    0.322800    0.323461
     0.323613    0.323744    0.323887    0.323944    0.324085    0.324090
     0.324222    0.324415    0.324492    0.324568    0.324819    0.325327
     0.325503    0.325580    0.325866    0.326306    0.326460    0.326495
     0.326628    0.326968    0.327124    0.327366    0.334969    0.337245
     0.337923    0.338832    0.343543    0.346825    0.348220    0.348274
     0.348279    0.348287    0.348314    0.350782    0.350813    0.350814
     0.350815    0.350816    0.350817    0.350819    0.350822    0.350827
     0.350831    0.350836    0.350840    0.350875    0.352279    0.354856
     0.356612    0.363636    0.374088    0.458000    0.469349    0.552020
     0.561881    0.571472    0.572598    0.573023    0.573036    0.573038
     0.573042    0.603875

 Minimum Search - Taking Simple RFO Step
 Searching for Lamda that Minimizes Along All modes
 Value Taken    Lamda =  -0.02273178
 Calculated Step too Large.  Step scaled by  0.818009
 Step Taken.  Stepsize is  0.300000

                             Maximum     Tolerance    Cnvgd?
         Gradient           0.036640      0.000300      NO
         Displacement       0.119508      0.001200      NO
         Energy change     -0.031249      0.000001      NO


 New Cartesian Coordinates Obtained by Inverse Iteration

 Displacement from previous Coordinates is:  2.332483
 ----------------------------------------------------------------
             Standard Nuclear Orientation (Angstroms)
    I     Atom           X                Y                Z
 ----------------------------------------------------------------
    1      C       4.4053061738    -0.3779841756     0.2590946919
    2      C       5.5948590254     0.2848458201     0.0457064852
    3      C       6.9007854099    -0.3220267314     0.1540084587
    4      C       8.0794420921     0.3468140286    -0.0883620110
    5      C       9.3970379686    -0.2521381543     0.0071861673
    6      C      10.5549807148     0.4433163877    -0.2424031125
    7      H       5.5660332340     1.3451516816    -0.2340411715
    8      H       6.9360007518    -1.3807558055     0.4386972038
    9      H       9.4322381728    -1.2979924936     0.3251779675
   10      C      11.9565012395    -0.0261980337    -0.1664418795
   11      H      10.4358802813     1.5106374719    -0.4640570840
   12      C      12.3646748931    -1.2908758698    -0.5290287403
   13      C      13.8275905937    -1.7442417634    -0.4325085494
   14      C      14.8327955238    -0.5727953149    -0.3532546666
   15      H      14.0723371896    -2.3835478542    -1.3027921276
   16      H      13.9381138663    -2.3935711303     0.4627255214
   17      C      14.3464514327     0.4288127652     0.7116454052
   18      H      14.9018547583    -0.0774682054    -1.3390777710
   19      H      15.8420647357    -0.9537193541    -0.1114761236
   20      C      12.9665702138     1.0644321098     0.3352141314
   21      H      15.0833084744     1.2369434242     0.8747485075
   22      H      14.2440525563    -0.1122591959     1.6733786951
   23      C      11.4548714219    -2.3600973806    -1.1205706589
   24      H      10.4506366903    -1.9952636433    -1.3738103655
   25      H      11.3559510032    -3.2274189073    -0.4398715893
   26      H      11.8995300285    -2.7457672836    -2.0600275517
   27      C      13.1695000231     2.1438549117    -0.7818840569
   28      H      13.5422667262     1.6966749135    -1.7184751427
   29      H      13.8962730165     2.9075700369    -0.4497622277
   30      H      12.2268852141     2.6674929876    -1.0182169706
   31      C      12.4236844384     1.7763160062     1.6195129337
   32      H      12.2463403677     1.0459456007     2.4278237992
   33      H      11.4772752644     2.3102284555     1.4340507349
   34      H      13.1601336034     2.5178672263     1.9791200754
   35      C       3.1079942359     0.2409065796     0.1367925314
   36      C       1.9089096599    -0.4143970385     0.3226155179
   37      C       0.6194979850     0.2168867315     0.1874958865
   38      C      -0.5878543823    -0.4306127424     0.3468954325
   39      H       0.6175407370     1.2841183540    -0.0660240401
   40      H       1.9174433413    -1.4802121489     0.5815573797
   41      H       4.4273399009    -1.4404137678     0.5308702152
   42      C      -1.8700401029     0.2125670380     0.2005406032
   43      C      -3.0842727785    -0.4274653524     0.3354137220
   44      C      -4.3602867368     0.2264555584     0.1797726944
   45      C      -5.5797381350    -0.4070652040     0.2925329541
   46      H      -5.6040353637    -1.4810331873     0.5142321851
   47      H      -4.3400837672     1.2992470853    -0.0481486121
   48      C      -6.8514031538     0.2558990575     0.1297290617
   49      C      -8.0738959447    -0.3727516373     0.2233474055
   50      H      -6.8222761424     1.3310389421    -0.0860808450
   51      C      -9.3458201440     0.3015915436     0.0549314667
   52      H      -0.5919067296    -1.4994826816     0.5930627267
   53      H      -1.8600444812     1.2827435689    -0.0400110499
   54      H      -8.1023351587    -1.4492908386     0.4338170925
   55      H      -3.0994677899    -1.4990503019     0.5691069799
   56      H       3.0929230694     1.3048589369    -0.1298080970
   57      H       8.0363164009     1.4028328395    -0.3826875638
   58      C     -10.5484494038    -0.3686112814     0.1435938546
   59      H      -9.2786824486     1.3680685476    -0.1447889647
   60      C     -11.9434204512     0.0782015542     0.0128954123
   61      H     -10.4412240171    -1.4345510506     0.3527843007
   62      C     -12.3662030367     1.3714262464    -0.2607914325
   63      C     -13.8637057850     1.6320122691    -0.4548447686
   64      C     -14.4243360328     0.5509958262    -1.4143560682
   65      H     -14.0273880462     2.6421371063    -0.8689864678
   66      H     -14.4210107088     1.6041623481     0.5014184994
   67      C     -13.0588791229    -1.0084600598     0.2437076772
   68      C     -11.4465787829     2.5642858669    -0.4804445322
   69      H     -12.0324425222     3.4717910398    -0.7027306206
   70      H     -10.7597995726     2.4048416384    -1.3324774757
   71      H     -10.8357819947     2.7865071069     0.4144808556
   72      C     -13.6165329176    -0.8239829018     1.7018419428
   73      H     -14.0262191013     0.1803438024     1.8888483113
   74      H     -12.8082298280    -0.9876379225     2.4372908942
   75      H     -14.4162002496    -1.5592859062     1.9092001345
   76      C     -12.5587603290    -2.4857763571     0.1580383006
   77      H     -12.0854856558    -2.7001459346    -0.8160853602
   78      H     -13.4218457588    -3.1656721100     0.2696413288
   79      H     -11.8465569560    -2.7424010133     0.9600984360
   80      C     -14.2277545931    -0.8735990520    -0.8176833957
   81      H     -13.8492030069     0.6287882194    -2.3560938375
   82      H     -15.4840667907     0.7275532877    -1.6732865999
   83      H     -14.0446627912    -1.5689877912    -1.6579538926
   84      H     -15.1589099501    -1.2226719514    -0.3317662288
 ----------------------------------------------------------------
 Molecular Point Group                 C1    NOp =  1
 Largest Abelian Subgroup              C1    NOp =  1
 Nuclear Repulsion Energy =  2901.3958227982 hartrees
 There are      132 alpha and      132 beta electrons
 Applying Cartesian multipole field
    Component          Value
    ---------          -----
     (2,0,0)        1.00000E-12
     (0,2,0)        2.00000E-11
     (0,0,2)       -3.00000E-11
 Nucleus-field energy     =     0.0000001192 hartrees
 Requested basis set is 6-31G
 There are 204 shells and 420 basis functions
 A cutoff of  1.0D-11 yielded   6524 shell pairs
 There are     30038 function pairs
 Smallest overlap matrix eigenvalue = 1.70E-03
 Guess MOs from SCF MO coefficient file

 -----------------------------------------------------------------------
  General SCF calculation program by
  Eric Jon Sundstrom, Paul Horn, Yuezhi Mao, Dmitri Zuev, Alec White,
  David Stuck, Shaama M.S., Shane Yost, Joonho Lee, David Small,
  Daniel Levine, Susi Lehtola, Hugh Burton, Evgeny Epifanovsky
 -----------------------------------------------------------------------
 Exchange:  B88      Correlation:  LYP
 Using SG-1 standard quadrature grid
 using 4 threads for integral computing
 -------------------------------------------------------
 OpenMP Integral computing Module                
 Release: version 1.0, May 2013, Q-Chem Inc. Pittsburgh 
 -------------------------------------------------------
 -------------------------------------------------------
 OpenMP BLAS3 based DFT computing Module                
[...]
     16  H        13.6692663358   -2.3632878652    1.2854613016
     17  C        14.2451895710    0.4499018425    0.8213299027
     18  H        15.0334144299   -0.6589162403   -0.8875351362
     19  H        15.7013916783   -1.1803182273    0.6694847613
     20  C        12.9622427100    1.0031138886    0.1183595007
     21  H        15.0202049290    1.2392810442    0.8168214615
     22  H        14.0070975528    0.2451578587    1.8837158866
     23  C        11.3372470807   -2.6253330438   -0.4526183696
     24  H        10.4862395329   -2.3015252153   -1.0694951613
     25  H        10.9235943364   -3.1049031452    0.4574343687
     26  H        11.8821158045   -3.4167374129   -0.9985512098
     27  C        13.3497397024    1.6686693306   -1.2470814374
     28  H        13.8409072630    0.9495073420   -1.9229243424
     29  H        14.0420455416    2.5129774366   -1.0757205332
     30  H        12.4621941965    2.0644236158   -1.7696889442
     31  C        12.3608335102    2.1043693201    1.0556146705
     32  H        11.9952732147    1.6633270036    1.9987508361
     33  H        11.5209674661    2.6415467501    0.5857892485
     34  H        13.1391206717    2.8486813560    1.3024603611
     35  C         3.0811634106    0.4734856293   -0.1895876952
     36  C         1.8645466196   -0.0753380518    0.1961392994
     37  C         0.5857742005    0.5052955997   -0.0692074109
     38  C        -0.6275226180   -0.0539065605    0.3137629762
     39  H         0.5696971788    1.4575647637   -0.6166992162
     40  H         1.8772332568   -1.0272759998    0.7446077418
     41  H         4.3631422697   -1.0627501938    0.6340972999
     42  C        -1.9107761682    0.5146393908    0.0440193686
     43  C        -3.1194687640   -0.0579285260    0.4202253598
     44  C        -4.4090243548    0.4926876199    0.1380692814
     45  C        -5.6112172581   -0.0966977609    0.5035248637
     46  H        -5.5754530995   -1.0453910261    1.0566081112
     47  H        -4.4405545807    1.4418011894   -0.4142396065
     48  C        -6.9090340226    0.4300955877    0.2011777987
     49  C        -8.1019679642   -0.1779544661    0.5539075500
     50  H        -6.9489939443    1.3745475307   -0.3586267873
     51  C        -9.4120010601    0.3200080735    0.2209002395
     52  H        -0.6079857096   -1.0067703188    0.8604037743
     53  H        -1.9340889366    1.4662813614   -0.5043024331
     54  H        -8.0581155798   -1.1208618829    1.1167165815
     55  H        -3.0922680789   -1.0097096793    0.9684394304
     56  H         3.0717992173    1.4243280683   -0.7397246634
     57  H         8.0806657209    1.3078049826   -0.9674134171
     58  C       -10.5791326970   -0.3408312102    0.5456058376
     59  H        -9.4502332104    1.2484649623   -0.3586643420
     60  C       -11.9669190188    0.0167582090    0.2067822908
     61  H       -10.4487085053   -1.3029288649    1.0557350822
     62  C       -12.4221152063    1.3160449316    0.1113920414
     63  C       -13.8159832616    1.6701060663   -0.4087923366
     64  C       -14.5145832972    0.5020224108   -1.1380318191
     65  H       -13.7300539354    2.5502054306   -1.0772630719
     66  H       -14.4480019296    2.0108202219    0.4403962417
     67  C       -12.9061916944   -1.2150791255   -0.0508819903
     68  C       -11.6212311468    2.5401490173    0.5396520941
     69  H       -12.2925199957    3.2693210981    1.0317290609
     70  H       -11.1738203663    3.0686192473   -0.3257354481
     71  H       -10.8089545833    2.2933548382    1.2385910954
     72  C       -12.9031833107   -2.1844241697    1.1813966192
     73  H       -13.1458444624   -1.6420903983    2.1113385016
     74  H       -11.9360759145   -2.6938807758    1.3197012539
     75  H       -13.6667638977   -2.9687091386    1.0342818048
     76  C       -12.3951517220   -1.9975444713   -1.3078088918
     77  H       -12.4118771332   -1.3615084772   -2.2090622697
     78  H       -13.0257360044   -2.8849040563   -1.4995764104
     79  H       -11.3562359667   -2.3397167344   -1.1643349602
     80  C       -14.3925774377   -0.7687014232   -0.2720767467
     81  H       -14.0430443954    0.3387524670   -2.1250376709
     82  H       -15.5755115557    0.7454317571   -1.3275377891
     83  H       -14.9531454148   -1.6112296203   -0.7171419180
     84  H       -14.8563425278   -0.5665797901    0.7137347927

Z-matrix Print:
$molecule
0 1
C 
C  1 1.380018
C  1 1.472624 2 123.736112
H  3 1.096756 1 115.600577 2 151.217239 0
C  3 1.379978 1 128.800906 2 -34.179173 0
H  5 1.095166 3 120.064557 1 0.620633 0
C  5 1.440502 3 123.313703 1 -176.447095 0
H  7 1.098977 5 116.825349 3 -1.555032 0
C  7 1.384642 5 124.947090 3 177.415240 0
H  9 1.098621 7 118.423391 5 1.241145 0
C  9 1.432918 7 124.410751 5 -178.010920 0
H  11 1.098726 9 116.944803 7 -0.272929 0
C  11 1.387876 9 124.949674 7 178.975384 0
H  13 1.098570 11 118.321351 9 0.815671 0
C  13 1.430295 11 124.440359 9 -178.560362 0
H  15 1.098711 13 117.015854 11 -0.325561 0
C  15 1.389353 13 124.910637 11 179.118662 0
H  17 1.098555 15 118.274076 13 0.559053 0
C  17 1.429247 15 124.476185 13 -179.029321 0
H  19 1.098703 17 117.055771 15 -0.278122 0
C  19 1.389771 17 124.874114 15 179.381262 0
H  21 1.098555 19 118.251803 17 0.291612 0
C  21 1.429267 19 124.504771 17 -179.510899 0
H  23 1.098710 21 117.063932 19 -0.245571 0
C  23 1.389298 21 124.852938 19 179.628769 0
H  25 1.098563 23 118.261073 21 0.018648 0
C  25 1.430378 23 124.515381 21 179.988782 0
H  27 1.098743 25 117.035405 23 -0.215036 0
C  27 1.387725 25 124.859650 23 179.883595 0
H  29 1.098566 27 118.313993 25 -0.283585 0
C  29 1.433164 27 124.491806 25 179.466472 0
H  31 1.098830 29 116.924191 27 -0.242725 0
C  31 1.384219 29 124.915592 27 180.000000 0
H  33 1.098745 31 118.483717 29 -0.582185 0
C  33 1.441337 31 124.398084 29 178.831398 0
H  35 1.095047 33 116.326363 31 -1.014907 0
C  35 1.378771 33 123.926666 31 -178.294442 0
H  37 1.098336 35 115.860991 33 2.162152 0
C  37 1.473261 35 128.808829 33 177.398914 0
C  39 1.380467 37 124.001230 35 37.636884 0
C  2 1.524222 1 124.290116 3 -9.479145 0
H  41 1.099644 2 112.735120 1 -19.874127 0
H  41 1.106553 2 109.596798 1 -140.526459 0
H  41 1.108311 2 112.065440 1 101.916593 0
C  40 1.525388 39 124.021442 37 2.218660 0
H  45 1.099819 40 112.529463 39 21.992077 0
H  45 1.105100 40 110.059951 39 142.978145 0
H  45 1.108734 40 111.963532 39 -99.097554 0
C  2 1.529320 1 122.827843 3 172.194743 0
H  49 1.108518 2 108.558570 1 -137.900703 0
H  49 1.112050 2 109.219719 1 107.961007 0
C  40 1.532278 39 122.795179 37 -177.936527 0
H  52 1.106986 40 109.019719 39 -141.775666 0
H  52 1.112543 40 108.393264 39 104.259310 0
C  49 1.544102 2 113.444603 1 -14.600608 0
H  55 1.104866 49 110.413049 2 169.620300 0
H  55 1.105978 49 109.892110 2 -72.835999 0
C  55 1.542564 49 108.799819 2 47.926566 0
H  58 1.105519 55 111.204718 49 175.230769 0
H  58 1.108041 55 108.425814 49 58.395189 0
C  52 1.545564 40 114.305137 39 -18.025305 0
H  61 1.105016 52 110.198960 40 166.615218 0
H  61 1.105534 52 109.580572 40 -76.354452 0
C  61 1.542410 52 109.696481 40 44.577009 0
H  64 1.106250 61 110.918988 52 177.269923 0
H  64 1.107823 61 108.840093 52 60.247478 0
C  64 1.564022 61 112.870324 52 -60.483511 0
C  67 1.566175 64 107.141122 61 167.533793 0
H  68 1.102121 67 112.348148 64 172.901321 0
H  68 1.103476 67 110.956185 64 -66.264631 0
H  68 1.104837 67 109.688301 64 53.175148 0
C  58 1.567649 55 112.877792 49 -62.294750 0
C  72 1.566295 58 109.778050 55 -80.391743 0
H  73 1.103183 72 110.968100 58 -178.811265 0
H  73 1.103213 72 111.260988 58 61.644299 0
H  73 1.105359 72 110.740152 58 -58.742840 0
C  67 1.567657 64 109.809580 61 -74.794492 0
H  77 1.102363 67 111.540883 64 59.427120 0
H  77 1.103393 67 111.468402 64 179.700776 0
H  77 1.105219 67 110.127865 64 -60.876906 0
C  72 1.567849 58 106.784086 55 161.896572 0
H  81 1.101803 72 112.719445 58 170.150142 0
H  81 1.103541 72 110.981063 58 -68.134459 0
H  81 1.104446 72 109.452192 58 50.986117 0
$end

 
 --------------------------------------------------------------
 
                    Orbital Energies (a.u.)
 --------------------------------------------------------------
 
 Alpha MOs
 -- Occupied --
 -9.934  -9.933  -9.925  -9.925  -9.921  -9.921  -9.921  -9.921
 -9.921  -9.921  -9.921  -9.921  -9.921  -9.921  -9.921  -9.920
 -9.920  -9.920  -9.919  -9.919  -9.919  -9.919  -9.918  -9.918
 -9.917  -9.916  -9.912  -9.912  -9.909  -9.909  -9.909  -9.908
 -9.905  -9.904  -9.901  -9.901  -0.756  -0.755  -0.737  -0.732
 -0.724  -0.714  -0.702  -0.697  -0.697  -0.689  -0.678  -0.666
 -0.652  -0.636  -0.621  -0.606  -0.603  -0.603  -0.598  -0.595
 -0.592  -0.569  -0.548  -0.533  -0.520  -0.508  -0.502  -0.498
 -0.494  -0.492  -0.486  -0.482  -0.479  -0.475  -0.436  -0.434
 -0.421  -0.420  -0.414  -0.407  -0.407  -0.395  -0.394  -0.388
 -0.385  -0.383  -0.374  -0.371  -0.367  -0.365  -0.364  -0.363
 -0.357  -0.352  -0.348  -0.346  -0.344  -0.342  -0.340  -0.337
 -0.334  -0.332  -0.326  -0.325  -0.318  -0.317  -0.315  -0.314
 -0.309  -0.305  -0.301  -0.300  -0.299  -0.299  -0.298  -0.297
 -0.294  -0.293  -0.293  -0.289  -0.289  -0.283  -0.272  -0.269
 -0.267  -0.259  -0.257  -0.250  -0.248  -0.245  -0.231  -0.213
 -0.196  -0.179  -0.158  -0.134
 -- Virtual --
 -0.094  -0.064  -0.036  -0.010   0.011   0.030   0.046   0.059
  0.060   0.063   0.064   0.067   0.072   0.073   0.080   0.081
  0.084   0.091   0.092   0.095   0.100   0.100   0.103   0.106
  0.109   0.115   0.122   0.122   0.123   0.126   0.127   0.129
  0.131   0.134   0.134   0.137   0.138   0.140   0.142   0.144
  0.146   0.150   0.151   0.154   0.160   0.161   0.163   0.165
  0.167   0.170   0.171   0.175   0.178   0.180   0.182   0.185
  0.187   0.189   0.193   0.194   0.200   0.203   0.205   0.208
  0.214   0.217   0.225   0.229   0.232   0.243   0.244   0.247
  0.248   0.249   0.252   0.264   0.282   0.306   0.310   0.312
  0.332   0.336   0.340   0.350   0.357   0.362   0.368   0.371
  0.374   0.376   0.377   0.381   0.405   0.413   0.436   0.447
  0.481   0.484   0.485   0.486   0.488   0.492   0.494   0.498
  0.499   0.500   0.508   0.513   0.518   0.519   0.522   0.524
  0.530   0.533   0.536   0.538   0.542   0.545   0.552   0.552
  0.556   0.560   0.564   0.566   0.570   0.571   0.575   0.581
  0.585   0.593   0.597   0.598   0.598   0.600   0.601   0.604
  0.605   0.609   0.611   0.614   0.615   0.617   0.623   0.624
  0.625   0.632   0.634   0.635   0.640   0.641   0.649   0.657
  0.666   0.670   0.680   0.686   0.690   0.698   0.705   0.706
  0.710   0.714   0.726   0.728   0.736   0.751   0.759   0.764
  0.765   0.766   0.769   0.772   0.774   0.777   0.781   0.785
  0.792   0.794   0.797   0.804   0.811   0.815   0.818   0.827
  0.837   0.838   0.843   0.847   0.851   0.853   0.856   0.859
  0.861   0.864   0.868   0.870   0.870   0.876   0.882   0.883
  0.886   0.887   0.896   0.899   0.906   0.907   0.911   0.917
  0.923   0.924   0.928   0.929   0.930   0.934   0.935   0.939
  0.941   0.944   0.948   0.951   0.954   0.957   0.963   0.971
  0.976   0.984   0.987   0.989   0.998   1.000   1.003   1.021
  1.027   1.029   1.031   1.037   1.050   1.055   1.057   1.059
  1.078   1.087   1.103   1.118   1.120   1.125   1.135   1.145
  1.168   1.173   1.176   1.183   1.187   1.200   1.201   1.206
  1.217   1.227   1.251   1.256   1.271   1.280   1.286   1.291
  1.299   1.306   1.320   1.321   1.330   1.334   1.359   1.401
  1.436   1.438   1.453   1.466   1.491   1.497   1.511   1.528
  1.544   1.564   1.622   1.628   1.729   1.742   1.798   1.812
 --------------------------------------------------------------
 
          Ground-State Mulliken Net Atomic Charges

     Atom                 Charge (a.u.)
  ----------------------------------------
      1 C                    -0.095309
      2 C                    -0.092028
      3 C                    -0.096615
      4 C                    -0.095422
      5 C                    -0.072166
      6 C                    -0.164534
      7 H                     0.090188
      8 H                     0.089250
      9 H                     0.099346
     10 C                     0.094091
     11 H                     0.095638
     12 C                     0.092723
     13 C                    -0.274880
     14 C                    -0.217080
     15 H                     0.110977
     16 H                     0.123123
     17 C                    -0.208360
     18 H                     0.115230
     19 H                     0.101596
     20 C                     0.010950
     21 H                     0.098264
     22 H                     0.106135
     23 C                    -0.441882
     24 H                     0.143205
     25 H                     0.131173
     26 H                     0.117946
     27 C                    -0.368557
     28 H                     0.122003
     29 H                     0.113813
     30 H                     0.118185
     31 C                    -0.361707
     32 H                     0.119874
     33 H                     0.113637
     34 H                     0.110338
     35 C                    -0.092766
     36 C                    -0.094970
     37 C                    -0.092781
     38 C                    -0.094952
     39 H                     0.090543
     40 H                     0.090350
     41 H                     0.090048
     42 C                    -0.092749
     43 C                    -0.095090
     44 C                    -0.092799
     45 C                    -0.094845
     46 H                     0.090140
     47 H                     0.090228
     48 C                    -0.093366
     49 C                    -0.098868
     50 H                     0.089559
     51 C                    -0.066861
     52 H                     0.090454
     53 H                     0.090472
     54 H                     0.089509
     55 H                     0.090413
     56 H                     0.090480
     57 H                     0.089250
     58 C                    -0.167379
     59 H                     0.098390
     60 C                     0.102655
     61 H                     0.092285
     62 C                     0.091780
     63 C                    -0.280161
     64 C                    -0.217038
     65 H                     0.116474
     66 H                     0.121004
     67 C                     0.011537
     68 C                    -0.443170
     69 H                     0.120998
     70 H                     0.130374
     71 H                     0.141877
     72 C                    -0.370610
     73 H                     0.120252
     74 H                     0.117654
     75 H                     0.115563
     76 C                    -0.364408
     77 H                     0.120392
     78 H                     0.109976
     79 H                     0.120872
     80 C                    -0.211813
     81 H                     0.115235
     82 H                     0.101422
     83 H                     0.099821
     84 H                     0.105476
  ----------------------------------------
  Sum of atomic charges =    -0.000000

 -----------------------------------------------------------------
                    Cartesian Multipole Moments
 -----------------------------------------------------------------
    Charge (ESU x 10^10)
                -0.0000
    Dipole Moment (Debye)
         X      -0.1547      Y      -0.0828      Z      -0.0460
       Tot       0.1814
    Quadrupole Moments (Debye-Ang)
        XX    -166.3454     XY      -6.7537     YY    -213.3699
        XZ       3.0792     YZ      -8.6422     ZZ    -227.5906
    Octopole Moments (Debye-Ang^2)
       XXX     -28.7476    XXY      -7.2555    XYY      -0.0853
       YYY      -6.6954    XXZ      -6.9532    XYZ      -1.8843
       YYZ      -8.1643    XZZ       3.3709    YZZ      -4.8731
       ZZZ     -17.2001
    Hexadecapole Moments (Debye-Ang^3)
      XXXX -131795.8847   XXXY   -1026.7169   XXYY  -23806.7420
      XYYY      49.6635   YYYY   -2443.4966   XXXZ     598.4830
      XXYZ    -340.5662   XYYZ      -3.7665   YYYZ     -10.7755
      XXZZ  -24653.3084   XYZZ      37.9964   YYZZ    -550.7088
      XZZZ      66.5122   YZZZ      -5.4710   ZZZZ    -854.3650
 -----------------------------------------------------------------
Archival summary:
1\1\cub-0-21.local\OPT\ProcedureUnspecified\6-31G\3648\c295_lal\WedOct3101:20:132018WedOct3101:20:132018\0\\#,OPT,ProcedureUnspecified,6-31G,\\0,1\C\C,1,1.38002\C,1,1.47262,2,123.736\H,3,1.09676,1,115.601,2,151.217,0\C,3,1.37998,1,128.801,2,-34.1792,0\H,5,1.09517,3,120.065,1,0.620633,0\C,5,1.4405,3,123.314,1,-176.447,0\H,7,1.09898,5,116.825,3,-1.55503,0\C,7,1.38464,5,124.947,3,177.415,0\H,9,1.09862,7,118.423,5,1.24114,0\C,9,1.43292,7,124.411,5,-178.011,0\H,11,1.09873,9,116.945,7,-0.272929,0\C,11,1.38788,9,124.95,7,178.975,0\H,13,1.09857,11,118.321,9,0.815671,0\C,13,1.4303,11,124.44,9,-178.56,0\H,15,1.09871,13,117.016,11,-0.325561,0\C,15,1.38935,13,124.911,11,179.119,0\H,17,1.09855,15,118.274,13,0.559053,0\C,17,1.42925,15,124.476,13,-179.029,0\H,19,1.0987,17,117.056,15,-0.278122,0\C,19,1.38977,17,124.874,15,179.381,0\H,21,1.09855,19,118.252,17,0.291612,0\C,21,1.42927,19,124.505,17,-179.511,0\H,23,1.09871,21,117.064,19,-0.245571,0\C,23,1.3893,21,124.853,19,179.629,0\H,25,1.09856,23,118.261,21,0.0186475,0\C,25,1.43038,23,124.515,21,179.989,0\H,27,1.09874,25,117.035,23,-0.215036,0\C,27,1.38773,25,124.86,23,179.884,0\H,29,1.09857,27,118.314,25,-0.283585,0\C,29,1.43316,27,124.492,25,179.466,0\H,31,1.09883,29,116.924,27,-0.242725,0\C,31,1.38422,29,124.916,27,180,0\H,33,1.09875,31,118.484,29,-0.582185,0\C,33,1.44134,31,124.398,29,178.831,0\H,35,1.09505,33,116.326,31,-1.01491,0\C,35,1.37877,33,123.927,31,-178.294,0\H,37,1.09834,35,115.861,33,2.16215,0\C,37,1.47326,35,128.809,33,177.399,0\C,39,1.38047,37,124.001,35,37.6369,0\C,2,1.52422,1,124.29,3,-9.47915,0\H,41,1.09964,2,112.735,1,-19.8741,0\H,41,1.10655,2,109.597,1,-140.526,0\H,41,1.10831,2,112.065,1,101.917,0\C,40,1.52539,39,124.021,37,2.21866,0\H,45,1.09982,40,112.529,39,21.9921,0\H,45,1.1051,40,110.06,39,142.978,0\H,45,1.10873,40,111.964,39,-99.0976,0\C,2,1.52932,1,122.828,3,172.195,0\H,49,1.10852,2,108.559,1,-137.901,0\H,49,1.11205,2,109.22,1,107.961,0\C,40,1.53228,39,122.795,37,-177.937,0\H,52,1.10699,40,109.02,39,-141.776,0\H,52,1.11254,40,108.393,39,104.259,0\C,49,1.5441,2,113.445,1,-14.6006,0\H,55,1.10487,49,110.413,2,169.62,0\H,55,1.10598,49,109.892,2,-72.836,0\C,55,1.54256,49,108.8,2,47.9266,0\H,58,1.10552,55,111.205,49,175.231,0\H,58,1.10804,55,108.426,49,58.3952,0\C,52,1.54556,40,114.305,39,-18.0253,0\H,61,1.10502,52,110.199,40,166.615,0\H,61,1.10553,52,109.581,40,-76.3545,0\C,61,1.54241,52,109.696,40,44.577,0\H,64,1.10625,61,110.919,52,177.27,0\H,64,1.10782,61,108.84,52,60.2475,0\C,64,1.56402,61,112.87,52,-60.4835,0\C,67,1.56617,64,107.141,61,167.534,0\H,68,1.10212,67,112.348,64,172.901,0\H,68,1.10348,67,110.956,64,-66.2646,0\H,68,1.10484,67,109.688,64,53.1751,0\C,58,1.56765,55,112.878,49,-62.2948,0\C,72,1.56629,58,109.778,55,-80.3917,0\H,73,1.10318,72,110.968,58,-178.811,0\H,73,1.10321,72,111.261,58,61.6443,0\H,73,1.10536,72,110.74,58,-58.7428,0\C,67,1.56766,64,109.81,61,-74.7945,0\H,77,1.10236,67,111.541,64,59.4271,0\H,77,1.10339,67,111.468,64,179.701,0\H,77,1.10522,67,110.128,64,-60.8769,0\C,72,1.56785,58,106.784,55,161.897,0\H,81,1.1018,72,112.719,58,170.15,0\H,81,1.10354,72,110.981,58,-68.1345,0\H,81,1.10445,72,109.452,58,50.9861,0\\\@

 Total job time:  3547.49s(wall), 14059.42s(cpu) 
 Wed Oct 31 01:20:13 2018

        *************************************************************
        *                                                           *
        *  Thank you very much for using Q-Chem.  Have a nice day.  *
        *                                                           *
        *************************************************************


