
Running Job 1 of 1 car_3_diox_opt_631g_gga.in
qchem car_3_diox_opt_631g_gga.in_8258.0 /scr/c295_lal/137094/qchem8258/ 1
/usr/software/qchem_511/exe/qcprog.exe_s car_3_diox_opt_631g_gga.in_8258.0 /scr/c295_lal/137094/qchem8258/
Check license passed

                  Welcome to Q-Chem
     A Quantum Leap Into The Future Of Chemistry


 Q-Chem 5.1, Q-Chem, Inc., Pleasanton, CA (2018)

 Yihan Shao,  Zhengting Gan,  E. Epifanovsky,  A. T. B. Gilbert,  M. Wormit,  
 J. Kussmann,  A. W. Lange,  A. Behn,  Jia Deng,  Xintian Feng,  D. Ghosh,  
 M. Goldey,  P. R. Horn,  L. D. Jacobson,  I. Kaliman,  T. Kus,  A. Landau,  
 Jie Liu,  E. I. Proynov,  R. M. Richard,  R. P. Steele,  E. J. Sundstrom,  
 H. L. Woodcock III,  P. M. Zimmerman,  D. Zuev,  B. Albrecht,  E. Alguire,  
 S. A. Baeppler,  D. Barton,  Z. Benda,  Y. A. Bernard,  E. J. Berquist,  
 K. B. Bravaya,  H. Burton,  D. Casanova,  Chun-Min Chang,  Yunqing Chen,  
 A. Chien,  K. D. Closser,  M. P. Coons,  S. Coriani,  S. Dasgupta,  
 A. L. Dempwolff,  M. Diedenhofen,  Hainam Do,  R. G. Edgar,  Po-Tung Fang,  
 S. Faraji,  S. Fatehi,  Qingguo Feng,  K. D. Fenk,  J. Fosso-Tande,  
 Qinghui Ge,  A. Ghysels,  G. Gidofalvi,  J. Gomes,  J. Gonthier,  A. Gunina,  
 D. Hait,  M. W. D. Hanson-Heine,  P. H. P. Harbach,  A. W. Hauser,  
 J. E. Herr,  E. G. Hohenstein,  Z. C. Holden,  Kerwin Hui,  B. C. Huynh,  
 T.-C. Jagau,  Hyunjun Ji,  B. Kaduk,  K. Khistyaev,  Jaehoon Kim,  
 P. Klunzinger,  K. Koh,  D. Kosenkov,  L. Koulias,  T. Kowalczyk,  
 C. M. Krauter,  A. Kunitsa,  Ka Un Lao,  A. Laurent,  K. V. Lawler,  
 Joonho Lee,  D. Lefrancois,  S. Lehtola,  D. S. Levine,  Yi-Pei Li,  
 You-Sheng Lin,  Fenglai Liu,  E. Livshits,  A. Luenser,  P. Manohar,  
 E. Mansoor,  S. F. Manzer,  Shan-Ping Mao,  Yuezhi Mao,  N. Mardirossian,  
 A. V. Marenich,  T. Markovich,  L. A. Martinez-Martinez,  S. A. Maurer,  
 N. J. Mayhall,  S. C. McKenzie,  J.-M. Mewes,  A. F. Morrison,  
 J. W. Mullinax,  K. Nanda,  T. S. Nguyen-Beck,  R. Olivares-Amaya,  
 J. A. Parkhill,  T. M. Perrine,  F. Plasser,  P. Pokhilko,  S. Prager,  
 A. Prociuk,  E. Ramos,  D. R. Rehn,  F. Rob,  M. Schneider,  N. Sergueev,  
 S. M. Sharada,  S. Sharma,  D. W. Small,  T. Stauch,  T. Stein,  
 Yu-Chuan Su,  A. J. W. Thom,  A. Tkatchenko,  T. Tsuchimochi,  N. M. Tubman,  
 L. Vogt,  M. L. Vidal,  O. Vydrov,  M. A. Watson,  J. Wenzel,  
 M. de Wergifosse,  T. A. Wesolowski,  A. White,  J. Witte,  A. Yamada,  
 Jun Yang,  K. Yao,  S. Yeganeh,  S. R. Yost,  Zhi-Qiang You,  A. Zech,  
 Igor Ying Zhang,  Xing Zhang,  Yan Zhao,  Ying Zhu,  B. R. Brooks,  
 G. K. L. Chan,  C. J. Cramer,  M. S. Gordon,  W. J. Hehre,  A. Klamt,  
 M. W. Schmidt,  C. D. Sherrill,  D. G. Truhlar,  A. Aspuru-Guzik,  R. Baer,  
 A. T. Bell,  N. A. Besley,  Jeng-Da Chai,  A. E. DePrince, III,  
 R. A. DiStasio Jr.,  A. Dreuw,  B. D. Dunietz,  T. R. Furlani,  
 Chao-Ping Hsu,  Yousung Jung,  Jing Kong,  D. S. Lambrecht,  WanZhen Liang,  
 C. Ochsenfeld,  V. A. Rassolov,  L. V. Slipchenko,  J. E. Subotnik,  
 T. Van Voorhis,  J. M. Herbert,  A. I. Krylov,  P. M. W. Gill,  M. Head-Gordon

 Contributors to earlier versions of Q-Chem not listed above: 
 R. D. Adamson,  B. Austin,  J. Baker,  G. J. O. Beran,  K. Brandhorst,  
 S. T. Brown,  E. F. C. Byrd,  A. K. Chakraborty,  C.-L. Cheng,  
 Siu Hung Chien,  D. M. Chipman,  D. L. Crittenden,  H. Dachsel,  
 R. J. Doerksen,  A. D. Dutoi,  L. Fusti-Molnar,  W. A. Goddard III,  
 A. Golubeva-Zadorozhnaya,  S. R. Gwaltney,  G. Hawkins,  A. Heyden,  
 S. Hirata,  G. Kedziora,  F. J. Keil,  C. Kelley,  Jihan Kim,  R. A. King,  
 R. Z. Khaliullin,  P. P. Korambath,  W. Kurlancheek,  A. M. Lee,  M. S. Lee,  
 S. V. Levchenko,  Ching Yeh Lin,  D. Liotard,  R. C. Lochan,  I. Lotan,  
 P. E. Maslen,  N. Nair,  D. P. O'Neill,  D. Neuhauser,  E. Neuscamman,  
 C. M. Oana,  R. Olson,  B. Peters,  R. Peverati,  P. A. Pieniazek,  
 Y. M. Rhee,  J. Ritchie,  M. A. Rohrdanz,  E. Rosta,  N. J. Russ,  
 H. F. Schaefer III,  N. E. Schultz,  N. Shenvi,  A. C. Simmonett,  A. Sodt,  
 D. Stuck,  K. S. Thanthiriwatte,  V. Vanovschi,  Tao Wang,  A. Warshel,  
 C. F. Williams,  Q. Wu,  X. Xu,  W. Zhang

 Please cite Q-Chem as follows:
 Y. Shao et al., Mol. Phys. 113, 184-215 (2015)
 DOI: 10.1080/00268976.2014.952696

 Q-Chem 5.1.1 for Intel X86 EM64T Linux

 Parts of Q-Chem use Armadillo 8.300.2 (Tropical Shenanigans).
 http://arma.sourceforge.net/

 Q-Chem begins on Wed Oct 31 16:15:21 2018  

Host: cub-0-25.local
0

     Scratch files written to /scr/c295_lal/137094/qchem8258//
 Aug318 |scratch|qcdevops|jenkins|workspace|build_RNUM -1
Processing $rem in /usr/software/qchem_511/config/preferences.
 MEM_TOTAL  2000 
Input Ideriv = 2
Curr. Ideriv = -1
Max.  Ideriv = 2

Checking the input file for inconsistencies... 	...done.

--------------------------------------------------------------
User input:
--------------------------------------------------------------
$molecule
0 1
C         -1.65192        2.41808        0.36369
C         -2.04260        1.70279        1.43577
C         -1.23981        0.53615        1.89590
C         -1.52532       -0.26012        2.96247
C         -0.65252       -1.44376        3.38160
C          0.41322       -2.01296        2.48533
H         -2.94375        1.99090        1.95083
H         -0.36037        0.33821        1.30342
C          1.73346       -2.34869        3.21165
C          2.53763       -1.31568        3.64415
C          3.80898       -1.53734        4.44316
C          3.93028       -2.93821        5.02970
H          3.85403       -0.83392        5.30314
H          4.66737       -1.31265        3.77297
C          3.63650       -3.93919        3.93606
H          3.22080       -3.07419        5.87102
H          4.95790       -3.07309        5.43105
C          2.15858       -3.83193        3.44864
H          3.85335       -4.97395        4.28265
H          4.34350       -3.71947        3.10272
C          2.25049        0.14546        3.37324
H          1.34911        0.33345        2.77611
H          3.10366        0.58857        2.81794
H          2.13220        0.68510        4.33623
C          1.21960       -4.48618        4.49232
H          1.21577       -3.92318        5.44722
H          1.53902       -5.52939        4.70363
H          0.17228       -4.54213        4.14374
C          2.10939       -4.65416        2.13572
H          2.76551       -4.19535        1.36464
H          1.09662       -4.74263        1.70479
H          2.45938       -5.69441        2.31491
C         -2.39671        3.60299       -0.16774
C         -1.87988        4.22652       -1.25689
C         -2.45378        5.41417       -1.94431
C         -1.84314        5.94130       -3.01667
H         -3.36801        5.87909       -1.60218
H         -0.95792        3.83199       -1.67958
H         -0.74005        2.11838       -0.14864
C         -2.41139        7.12782       -3.70879
C         -1.85627        7.71900       -4.79430
C         -2.56949        8.90983       -5.36353
C         -2.17536        9.62760       -6.43273
H         -1.27782        9.36252       -6.95660
H         -3.48669        9.21836       -4.86576
C         -2.98629       10.79023       -6.88825
C         -2.71199       11.59931       -7.94287
H         -3.88421       11.00080       -6.31043
C         -3.67051       12.71272       -8.21977
C         -3.53043       13.58838       -9.22345
H         -2.69785       13.54977       -9.91652
H         -4.53888       12.83215       -7.57656
H         -4.26997       14.37089       -9.36023
H         -0.92390        5.48849       -3.37501
H         -3.33506        7.53665       -3.30424
C         -2.73429       -0.05530        3.85280
H         -3.38643        0.79173        3.58844
H         -2.39257        0.11252        4.89579
H         -3.36616       -0.96778        3.83139
C         -3.67326        4.04621        0.52233
H         -4.16804        4.92437        0.07747
H         -3.44882        4.30462        1.57843
H         -4.41007        3.21609        0.49925
C         -0.56797        7.17106       -5.38035
H          0.23507        7.20893       -4.61419
H         -0.72175        6.11799       -5.69768
H         -0.19453        7.71809       -6.26106
C         -1.50010       11.43215       -8.84005
H         -0.83410       10.59328       -8.58175
H         -0.88520       12.35562       -8.80070
H         -1.83773       11.26585       -9.88446
O         -0.43336       -3.11227        2.32523
O         -1.35941       -2.62644        3.15664
H         -0.33085       -1.38684        4.44566
H          0.56629       -1.52776        1.50466
$end

$rem
BASIS = 6-31G(d,p)
METHOD  = BLYP
JOBTYPE = OPT
$end
--------------------------------------------------------------
 ----------------------------------------------------------------
             Standard Nuclear Orientation (Angstroms)
    I     Atom           X                Y                Z
 ----------------------------------------------------------------
    1      C      -0.5235968292    -1.1999275620    -0.0882046387
    2      C      -1.6292992254    -1.9463823873    -0.2721980562
    3      C      -2.9798888352    -1.3574617535    -0.0569761160
    4      C      -4.1679331857    -2.0034478849    -0.2131362170
    5      C      -5.5225922671    -1.3344002593     0.0229304990
    6      C      -5.6539355659    -0.0157586643     0.7349863833
    7      H      -1.5166540956    -2.9734841993    -0.5767279245
    8      H      -2.9719472932    -0.3232079326     0.2494279856
    9      C      -6.6564949192     0.9572995425     0.0782356679
   10      C      -6.3229251026     1.5485767295    -1.1217550673
   11      C      -7.2720277263     2.4494605041    -1.8908412735
   12      C      -8.7197620639     2.3578612792    -1.4251648964
   13      H      -7.2735369505     2.1801153527    -2.9696580842
   14      H      -6.8914258183     3.4902495258    -1.7993315791
   15      C      -8.7438770545     2.4800762906     0.0810880892
   16      H      -9.1718762269     1.3943060813    -1.7363335604
   17      H      -9.3042620325     3.1735806508    -1.9029085461
   18      C      -8.0237563418     1.2750389314     0.7612657222
   19      H      -9.7898227143     2.5622871293     0.4513796811
   20      H      -8.2325694080     3.4381166327     0.3326921978
   21      C      -4.9836267094     1.3718879163    -1.8042743598
   22      H      -4.2686607958     0.7440349319    -1.2574519447
   23      H      -4.5062821976     2.3657029805    -1.9349550631
   24      H      -5.1343619886     0.9137786175    -2.8042585296
   25      C      -8.9391359992     0.0267437009     0.7080346631
   26      H      -9.0936834906    -0.3217194448    -0.3328813700
   27      H      -9.9327062608     0.2532670307     1.1512879461
   28      H      -8.5269347522    -0.8255305537     1.2783296115
   29      C      -7.8351782528     1.7035153345     2.2387930593
   30      H      -7.1688121208     2.5907633847     2.3044551673
   31      H      -7.4054031415     0.9131686445     2.8790087589
   32      H      -8.8139845205     1.9700857633     2.6944251648
   33      C       0.8709144056    -1.7092013735    -0.2808709260
   34      C       1.8883018934    -0.8385039010    -0.0596035688
   35      C       3.3405093916    -1.1323092226    -0.1907210883
   36      C       4.2528924251    -0.1796858933     0.0557930262
   37      H       3.6956697542    -2.1102825567    -0.4847437251
   38      H       1.6338424697     0.1753070288     0.2433300855
   39      H      -0.6491711114    -0.1637526013     0.2190111914
   40      C       5.7058032281    -0.4665265519    -0.0728168587
   41      C       6.6875955339     0.4387349668     0.1564633586
   42      C       8.1023471626    -0.0275322249    -0.0220146095
   43      C       9.2073762149     0.7210995067     0.1573793530
   44      H       9.1183973153     1.7479002075     0.4541087096
   45      H       8.2447258452    -1.0634935118    -0.3232356191
   46      C      10.5539961025     0.1229429975    -0.0562514525
   47      C      11.7470564662     0.7541264285     0.0861870460
   48      H      10.5688402167    -0.9233508036    -0.3554586346
   49      C      12.9815577208    -0.0456831538    -0.1810718413
   50      C      14.2250557246     0.4416735473    -0.0812092117
   51      H      14.4259576628     1.4676397174     0.2052485384
   52      H      12.8806031543    -1.0874907398    -0.4751708298
   53      H      15.0726373076    -0.2026846916    -0.2918226020
   54      H       3.9156393617     0.8087313460     0.3519996461
   55      H       5.9825603058    -1.4754823571    -0.3717861603
   56      C      -4.2761121146    -3.4521842631    -0.6440740642
   57      H      -3.3220229772    -3.9694459802    -0.8305863800
   58      H      -4.8638404174    -3.5081280209    -1.5843984704
   59      H      -4.8087951654    -4.0306224649     0.1395048082
   60      C       1.0812056535    -3.1501212457    -0.7071900419
   61      H       2.1325869774    -3.4558632385    -0.8296310448
   62      H       0.5812697733    -3.3206027849    -1.6836614507
   63      H       0.6362357193    -3.8262427780     0.0526667262
   64      C       6.3317691283     1.8537203917     0.5743312233
   65      H       5.7076966707     2.3282252027    -0.2122355419
   66      H       5.7624396812     1.8282763331     1.5274941804
   67      H       7.1972021984     2.5160951779     0.7375323339
   68      C      11.8872887153     2.2078947277     0.4966068783
   69      H      10.9398776471     2.7402349685     0.6782766414
   70      H      12.4212868080     2.7640118943    -0.3021590494
   71      H      12.4760899213     2.2681594979     1.4358210457
   72      O      -6.1940668293    -0.7440937436     1.7973415090
   73      O      -6.1186666366    -1.9087407902     1.1471461175
   74      H      -6.2026112221    -1.4161728474    -0.8544648643
   75      H      -4.7234918034     0.4770369518     1.0696354520
 ----------------------------------------------------------------
 Molecular Point Group                 C1    NOp =  1
 Largest Abelian Subgroup              C1    NOp =  1
 Nuclear Repulsion Energy =  2885.6733769360 hartrees
 There are      122 alpha and      122 beta electrons
 Requested basis set is 6-31G(d,p)
 There are 258 shells and 705 basis functions

 Total QAlloc Memory Limit   2000 MB
 Mega-Array Size       188 MB
 MEM_STATIC part       192 MB
 A cutoff of  1.0D-11 yielded  11056 shell pairs
 There are     84579 function pairs
 
 -------------------------------------------------------
 OpenMP Integral Computing Module                       
 Release: version 1.0, May 2013, Q-Chem Inc. Pittsburgh 
 -------------------------------------------------------
 Integral Job Info:
 Integral job number is                      11
 Integral operator is                         1
 short-range coefficients                     0
 long-range coefficients              100000000
 Omega coefficients                           0
 if combine SR and LR in K                    0
 Integral screening is                        0
 Integral computing path is                   2
 max size of driver memory is            800000
 size of driver memory is                593474
 size of scratch memory is              2361544
 max col of scratch BK array               1296
 max len of scratch array in speh3          155
 max len of scratch index in speh4           18
 max int batch size is                      520
 min int batch size is                       52
 fixed nKL is                                52
 max L of basis functions is                  2
 order of int derivative is                   0
 number of shells is                        258
 number of basis is                         705
 number of cartesian basis is               705
 number of contracted shell pairs         11056
 number of primitive shell pairs          31354
 maxK2 (contraction) of shell pair           36
 max number of K2 of shell pair               1
 max number of CS2 of shell pair           1105
 max number of PS2 of shell pair           4404
 mem total for path MDJ                  645132
 -------------------------------------------------------
 Smallest overlap matrix eigenvalue = 9.58E-04

 Scale SEOQF with 1.000000e-02/1.000000e-01/1.000000e-01

 Standard Electronic Orientation quadrupole field applied
 Nucleus-field energy     =     0.0000000745 hartrees
 Guess from superposition of atomic densities
 Warning:  Energy on first SCF cycle will be non-variational
 SAD guess density has 244.000001 electrons

 -----------------------------------------------------------------------
  General SCF calculation program by
  Eric Jon Sundstrom, Paul Horn, Yuezhi Mao, Dmitri Zuev, Alec White,
  David Stuck, Shaama M.S., Shane Yost, Joonho Lee, David Small,
  Daniel Levine, Susi Lehtola, Hugh Burton, Evgeny Epifanovsky
 -----------------------------------------------------------------------
 Exchange:  B88      Correlation:  LYP
 Using SG-1 standard quadrature grid
 using 12 threads for integral computing
 -------------------------------------------------------
 OpenMP Integral computing Module                
 Release: version 1.0, May 2013, Q-Chem Inc. Pittsburgh 
 -------------------------------------------------------
 -------------------------------------------------------
 OpenMP BLAS3 based DFT computing Module                
 Release: version 1.0, May 2013, Q-Chem Inc. Pittsburgh 
 -------------------------------------------------------
 A restricted SCF calculation will be
 performed using DIIS
 SCF converges when DIIS error is below 1.0e-08
 ---------------------------------------
  Cycle       Energy         DIIS error
 ---------------------------------------
    1   -1360.9366863228      2.59e-02  
    2   -1355.1963155985      3.65e-03  
    3   -1354.6470304497      4.58e-03  
    4   -1356.1015114050      7.01e-04  
    5   -1356.1198928211      4.64e-04  
    6   -1356.1330829561      1.93e-04  
    7   -1356.1356722406      5.41e-05  
    8   -1356.1358238556      2.87e-05  
    9   -1356.1358817852      7.04e-06  
   10   -1356.1358848236      3.02e-06  
   11   -1356.1358853466      1.52e-06  
   12   -1356.1358855045      2.61e-07  
   13   -1356.1358855061      2.07e-07  
   14   -1356.1358855091      4.26e-08  
   15   -1356.1358855092      2.40e-08  
   16   -1356.1358855093      6.22e-09  Convergence criterion met
 ---------------------------------------
 SCF time:   CPU 809.90s  wall 68.00s 
 SCF   energy in the final basis set =    -1356.1358855093
 Total energy in the final basis set =    -1356.1358855093
 
 --------------------------------------------------------------
 
                    Orbital Energies (a.u.)
 --------------------------------------------------------------
 
 Alpha MOs
 -- Occupied --
-18.835 -18.833  -9.982  -9.981  -9.937  -9.937  -9.935  -9.934
 -9.932  -9.929  -9.928  -9.927  -9.926  -9.926  -9.926  -9.926
 -9.926  -9.925  -9.925  -9.925  -9.924  -9.923  -9.923  -9.923
 -9.922  -9.921  -9.920  -9.920  -9.913  -9.911  -9.911  -9.903
 -9.902  -1.104  -0.801  -0.754  -0.744  -0.739  -0.730  -0.724
 -0.703  -0.696  -0.688  -0.676  -0.663  -0.651  -0.644  -0.621
 -0.611  -0.609  -0.600  -0.594  -0.593  -0.588  -0.550  -0.532
 -0.521  -0.506  -0.493  -0.489  -0.484  -0.476  -0.475  -0.469
 -0.463  -0.458  -0.451  -0.439  -0.426  -0.416  -0.410  -0.406
 -0.395  -0.388  -0.384  -0.381  -0.378  -0.369  -0.368  -0.367
 -0.364  -0.363  -0.361  -0.360  -0.357  -0.354  -0.345  -0.341
 -0.338  -0.335  -0.331  -0.329  -0.325  -0.322  -0.321  -0.318
 -0.314  -0.309  -0.308  -0.306  -0.301  -0.299  -0.293  -0.291
 -0.289  -0.286  -0.285  -0.283  -0.278  -0.277  -0.276  -0.269
 -0.265  -0.252  -0.248  -0.242  -0.229  -0.204  -0.185  -0.177
 -0.152  -0.147
 -- Virtual --
 -0.082  -0.050  -0.020  -0.010   0.014   0.034   0.038   0.058
  0.060   0.062   0.063   0.067   0.070   0.074   0.076   0.081
  0.084   0.085   0.089   0.091   0.096   0.101   0.103   0.106
  0.109   0.112   0.124   0.128   0.129   0.133   0.139   0.141
  0.144   0.148   0.149   0.150   0.150   0.153   0.153   0.156
  0.156   0.157   0.164   0.166   0.167   0.173   0.173   0.176
  0.183   0.187   0.190   0.192   0.196   0.199   0.201   0.207
  0.211   0.211   0.213   0.220   0.222   0.227   0.237   0.246
  0.254   0.257   0.262   0.269   0.280   0.310   0.311   0.324
  0.329   0.332   0.341   0.351   0.366   0.371   0.375   0.385
  0.399   0.403   0.403   0.412   0.431   0.445   0.453   0.456
  0.466   0.467   0.472   0.473   0.476   0.480   0.487   0.487
  0.490   0.497   0.501   0.501   0.512   0.515   0.516   0.521
  0.523   0.525   0.527   0.530   0.535   0.538   0.539   0.545
  0.557   0.562   0.568   0.568   0.572   0.580   0.582   0.588
  0.589   0.593   0.599   0.601   0.603   0.611   0.614   0.617
  0.624   0.629   0.631   0.640   0.645   0.657   0.660   0.664
  0.665   0.668   0.676   0.676   0.679   0.682   0.687   0.695
  0.700   0.702   0.706   0.707   0.711   0.712   0.725   0.728
  0.732   0.743   0.752   0.753   0.756   0.764   0.766   0.772
  0.775   0.777   0.786   0.786   0.790   0.792   0.798   0.807
  0.808   0.811   0.812   0.814   0.818   0.822   0.826   0.831
  0.834   0.835   0.837   0.839   0.841   0.844   0.847   0.854
  0.857   0.859   0.865   0.866   0.870   0.877   0.880   0.884
  0.887   0.888   0.895   0.896   0.900   0.901   0.913   0.917
  0.924   0.931   0.939   0.940   0.943   0.952   0.957   0.971
  0.987   0.996   1.005   1.007   1.022   1.034   1.036   1.041
  1.044   1.046   1.052   1.061   1.071   1.079   1.081   1.099
  1.099   1.118   1.123   1.137   1.142   1.151   1.157   1.185
  1.197   1.210   1.212   1.219   1.221   1.225   1.230   1.232
  1.238   1.246   1.252   1.256   1.264   1.270   1.276   1.282
  1.282   1.285   1.294   1.315   1.315   1.329   1.334   1.344
  1.348   1.351   1.371   1.377   1.390   1.395   1.407   1.413
  1.428   1.431   1.439   1.442   1.451   1.457   1.462   1.481
  1.486   1.492   1.503   1.515   1.530   1.536   1.561   1.574
  1.596   1.599   1.618   1.639   1.651   1.662   1.668   1.676
  1.679   1.691   1.693   1.695   1.700   1.702   1.703   1.708
  1.709   1.715   1.719   1.738   1.746   1.749   1.759   1.765
  1.772   1.782   1.786   1.794   1.796   1.803   1.806   1.810
  1.812   1.813   1.821   1.826   1.833   1.840   1.842   1.850
  1.854   1.862   1.880   1.881   1.885   1.887   1.895   1.902
  1.903   1.906   1.908   1.920   1.936   1.944   1.949   1.965
  1.969   1.971   1.972   1.974   1.978   1.980   1.984   1.986
  1.990   1.993   1.995   2.000   2.003   2.003   2.010   2.014
  2.015   2.020   2.021   2.026   2.032   2.038   2.039   2.042
  2.048   2.057   2.059   2.064   2.067   2.079   2.080   2.084
  2.086   2.103   2.109   2.115   2.116   2.122   2.131   2.137
  2.143   2.150   2.152   2.159   2.164   2.174   2.180   2.183
  2.195   2.211   2.217   2.229   2.233   2.242   2.246   2.268
  2.269   2.274   2.282   2.285   2.289   2.290   2.300   2.308
  2.317   2.328   2.336   2.337   2.345   2.351   2.360   2.365
  2.372   2.373   2.380   2.387   2.390   2.394   2.400   2.404
  2.407   2.411   2.417   2.425   2.434   2.439   2.449   2.452
  2.459   2.467   2.478   2.481   2.487   2.492   2.504   2.514
  2.516   2.532   2.534   2.538   2.543   2.548   2.552   2.553
  2.560   2.570   2.577   2.579   2.592   2.600   2.602   2.607
  2.611   2.615   2.621   2.628   2.634   2.636   2.643   2.644
  2.653   2.655   2.657   2.671   2.677   2.680   2.701   2.707
  2.708   2.716   2.729   2.736   2.738   2.748   2.756   2.761
  2.766   2.775   2.781   2.782   2.787   2.789   2.790   2.793
  2.797   2.798   2.813   2.827   2.829   2.837   2.840   2.847
  2.851   2.861   2.863   2.868   2.870   2.884   2.899   2.910
  2.920   2.932   2.948   2.966   2.970   2.981   2.991   3.008
  3.018   3.021   3.051   3.087   3.098   3.129   3.131   3.132
  3.134   3.136   3.147   3.178   3.210   3.217   3.245   3.275
  3.309   3.312   3.314   3.315   3.318   3.324   3.326   3.331
  3.335   3.337   3.346   3.351   3.358   3.371   3.379   3.388
  3.390   3.399   3.413   3.414   3.418   3.426   3.472   3.473
  3.478   3.494   3.516   3.546   3.555   3.606   3.759   4.015
  4.021   4.027   4.033   4.052   4.066   4.083   4.106   4.146
  4.172   4.196   4.237   4.281   4.305   4.321   4.367   4.386
  4.398   4.405   4.437   4.444   4.462   4.479   4.543   4.560
  4.569   4.606   4.640   4.665   4.682   4.710   4.793
 --------------------------------------------------------------
 
          Ground-State Mulliken Net Atomic Charges

     Atom                 Charge (a.u.)
  ----------------------------------------
      1 C                    -0.088305
      2 C                    -0.053330
      3 C                    -0.095589
      4 C                     0.128548
      5 C                     0.121405
      6 C                     0.115351
      7 H                     0.055184
      8 H                     0.047242
      9 C                     0.052504
     10 C                     0.085969
     11 C                    -0.192816
     12 C                    -0.158111
     13 H                     0.076739
     14 H                     0.086844
     15 C                    -0.134549
     16 H                     0.081598
     17 H                     0.064668
     18 C                     0.046086
     19 H                     0.065719
     20 H                     0.068004
     21 C                    -0.347970
     22 H                     0.095122
     23 H                     0.100329
     24 H                     0.101518
     25 C                    -0.289109
     26 H                     0.079024
     27 H                     0.076543
     28 H                     0.118739
     29 C                    -0.292365
     30 H                     0.076951
     31 H                     0.107271
     32 H                     0.080438
     33 C                     0.149378
     34 C                    -0.122287
     35 C                    -0.045171
     36 C                    -0.046445
     37 H                     0.054862
     38 H                     0.050168
     39 H                     0.050625
     40 C                    -0.116995
     41 C                     0.141134
     42 C                    -0.084831
     43 C                    -0.054000
     44 H                     0.052757
     45 H                     0.051079
     46 C                    -0.114502
     47 C                     0.149311
     48 H                     0.049969
     49 C                    -0.034977
     50 C                    -0.227333
     51 H                     0.076625
     52 H                     0.056239
     53 H                     0.075973
     54 H                     0.056272
     55 H                     0.050080
     56 C                    -0.349202
     57 H                     0.101874
     58 H                     0.102253
     59 H                     0.126063
     60 C                    -0.357477
     61 H                     0.098337
     62 H                     0.109995
     63 H                     0.111848
     64 C                    -0.358408
     65 H                     0.114373
     66 H                     0.114868
     67 H                     0.093833
     68 C                    -0.358666
     69 H                     0.096181
     70 H                     0.110568
     71 H                     0.110647
     72 O                    -0.270222
     73 O                    -0.259555
     74 H                     0.076992
     75 H                     0.088118
  ----------------------------------------
  Sum of atomic charges =    -0.000000

 -----------------------------------------------------------------
                    Cartesian Multipole Moments
 -----------------------------------------------------------------
    Charge (ESU x 10^10)
                -0.0000
    Dipole Moment (Debye)
         X       1.0967      Y       1.0077      Z      -1.9781
       Tot       2.4761
    Quadrupole Moments (Debye-Ang)
        XX    -212.3325     XY      -2.9020     YY    -190.2629
        XZ      13.9154     YZ       7.3043     ZZ    -209.1678
    Octopole Moments (Debye-Ang^2)
       XXX       3.4399    XXY      86.5197    XYY      30.1537
       YYY     -25.7218    XXZ     -66.1392    XYZ      11.0075
       YYZ     -10.0301    XZZ     -38.5776    YZZ       2.6794
       ZZZ       4.7926
    Hexadecapole Moments (Debye-Ang^3)
      XXXX  -66599.2409   XXXY     100.5156   XXYY  -11153.8119
      XYYY     116.5385   YYYY   -3570.0133   XXXZ     458.6989
      XXYZ     363.8844   XYYZ      37.1374   YYYZ       1.3280
      XXZZ  -11723.1784   XYZZ       7.2365   YYZZ    -826.4739
      XZZZ       2.8466   YZZZ      -5.5305   ZZZZ   -1269.7198
 -----------------------------------------------------------------
 Calculating analytic gradient of the SCF energy
 Gradient of SCF Energy
            1           2           3           4           5           6
    1  -0.0345864   0.0330012  -0.0151453  -0.0043264  -0.0318394  -0.0018630
    2   0.0115207  -0.0144347   0.0233630  -0.0020564   0.0117249  -0.0492356
    3   0.0043772  -0.0058115   0.0066440   0.0085724   0.0486272   0.0203426
            7           8           9          10          11          12
    1   0.0035162  -0.0000434  -0.0015976   0.0031495  -0.0014244   0.0087221
    2   0.0090949  -0.0101791  -0.0228319   0.0112156   0.0032802  -0.0059999
    3   0.0023788  -0.0032298   0.0183042  -0.0171329   0.0089393   0.0074670
           13          14          15          16          17          18
    1  -0.0083688   0.0028939   0.0026871  -0.0018189  -0.0001362  -0.0018756
    2  -0.0031310   0.0008005  -0.0046238  -0.0036316   0.0047483   0.0005884
    3  -0.0021430   0.0039789  -0.0026697   0.0015364  -0.0014816  -0.0081793
           19          20          21          22          23          24
    1  -0.0061823   0.0020567  -0.0018909   0.0009550   0.0009191  -0.0035902
    2   0.0020602   0.0057173   0.0003879  -0.0001519   0.0032393  -0.0038538
    3  -0.0017458  -0.0033545   0.0011823   0.0007115   0.0037660  -0.0013533
           25          26          27          28          29          30
    1   0.0081475   0.0009196  -0.0031179  -0.0004749  -0.0050160   0.0041778
    2   0.0098871  -0.0018041  -0.0001963  -0.0044295  -0.0016337   0.0033166
    3  -0.0008888  -0.0038575   0.0029084   0.0027803  -0.0129267  -0.0004237
           31          32          33          34          35          36
    1   0.0004661  -0.0041266   0.0257863  -0.0371782   0.0476243  -0.0473552
    2  -0.0010587  -0.0004579  -0.0053841   0.0089728  -0.0038581   0.0008919
    3   0.0036496   0.0040546  -0.0021746   0.0037291  -0.0026314   0.0017091
           37          38          39          40          41          42
    1   0.0021409  -0.0009046  -0.0038087   0.0389194  -0.0374284   0.0394017
    2   0.0085512  -0.0049834  -0.0054229  -0.0052527   0.0047948  -0.0111086
    3   0.0024689  -0.0014197  -0.0015000  -0.0028728   0.0027052  -0.0043325
           43          44          45          46          47          48
    1  -0.0375534  -0.0016954   0.0037665   0.0309295  -0.0159132   0.0019955
    2   0.0193794  -0.0124033   0.0054434  -0.0159595   0.0094448   0.0046674
    3   0.0065995  -0.0034754   0.0013943  -0.0055288   0.0032094   0.0012293
           49          50          51          52          53          54
    1   0.0172122  -0.0104840  -0.0027779   0.0074225  -0.0058192  -0.0013846
    2  -0.0172340   0.0001935  -0.0042980   0.0047104   0.0002701  -0.0051322
    3  -0.0055093   0.0004540  -0.0011782   0.0010595   0.0002550  -0.0014589
           55          56          57          58          59          60
    1   0.0008125   0.0067134   0.0003758   0.0007664   0.0007408   0.0055659
    2   0.0047408   0.0035796  -0.0046810   0.0027730  -0.0009329   0.0031635
    3   0.0013347   0.0007212  -0.0017285  -0.0038783   0.0047899   0.0006339
           61          62          63          64          65          66
    1   0.0019275  -0.0001895   0.0002377  -0.0007697  -0.0012156  -0.0008544
    2  -0.0049595   0.0030818  -0.0000453  -0.0051356   0.0005774  -0.0029337
    3  -0.0014834  -0.0048025   0.0058030  -0.0013984  -0.0061675   0.0055102
           67          68          69          70          71          72
    1   0.0000754  -0.0061381  -0.0005125  -0.0006301  -0.0003653   0.0232398
    2   0.0033586  -0.0015095   0.0051951   0.0000662  -0.0028572  -0.0826292
    3   0.0009109  -0.0003658   0.0016214  -0.0056870   0.0050691  -0.1010131
           73          74          75
    1   0.0207991  -0.0064765  -0.0011860
    2   0.1338003   0.0009320  -0.0031022
    3   0.0158579   0.0017692   0.0047488
 Max gradient component =       1.338E-01
 RMS gradient           =       1.707E-02
 Gradient time:  CPU 87.51 s  wall 8.46 s
 Geometry Optimization Parameters
   NAtoms,    NIC,     NZ,  NCons,   NDum,   NFix, NCnnct, MaxDiis
       75     539       0       0       0       0       0       0


** GEOMETRY OPTIMIZATION IN DELOCALIZED INTERNAL COORDINATES **
   Searching for a Minimum

   Optimization Cycle:   1

                       Coordinates (Angstroms)
     ATOM                X               Y               Z
      1  C        -0.5235968292   -1.1999275620   -0.0882046387
      2  C        -1.6292992254   -1.9463823873   -0.2721980562
      3  C        -2.9798888352   -1.3574617535   -0.0569761160
      4  C        -4.1679331857   -2.0034478849   -0.2131362170
      5  C        -5.5225922671   -1.3344002593    0.0229304990
      6  C        -5.6539355659   -0.0157586643    0.7349863833
      7  H        -1.5166540956   -2.9734841993   -0.5767279245
      8  H        -2.9719472932   -0.3232079326    0.2494279856
      9  C        -6.6564949192    0.9572995425    0.0782356679
     10  C        -6.3229251026    1.5485767295   -1.1217550673
     11  C        -7.2720277263    2.4494605041   -1.8908412735
     12  C        -8.7197620639    2.3578612792   -1.4251648964
     13  H        -7.2735369505    2.1801153527   -2.9696580842
     14  H        -6.8914258183    3.4902495258   -1.7993315791
     15  C        -8.7438770545    2.4800762906    0.0810880892
     16  H        -9.1718762269    1.3943060813   -1.7363335604
     17  H        -9.3042620325    3.1735806508   -1.9029085461
     18  C        -8.0237563418    1.2750389314    0.7612657222
     19  H        -9.7898227143    2.5622871293    0.4513796811
     20  H        -8.2325694080    3.4381166327    0.3326921978
     21  C        -4.9836267094    1.3718879163   -1.8042743598
     22  H        -4.2686607958    0.7440349319   -1.2574519447
     23  H        -4.5062821976    2.3657029805   -1.9349550631
     24  H        -5.1343619886    0.9137786175   -2.8042585296
     25  C        -8.9391359992    0.0267437009    0.7080346631
     26  H        -9.0936834906   -0.3217194448   -0.3328813700
     27  H        -9.9327062608    0.2532670307    1.1512879461
     28  H        -8.5269347522   -0.8255305537    1.2783296115
     29  C        -7.8351782528    1.7035153345    2.2387930593
     30  H        -7.1688121208    2.5907633847    2.3044551673
     31  H        -7.4054031415    0.9131686445    2.8790087589
     32  H        -8.8139845205    1.9700857633    2.6944251648
     33  C         0.8709144056   -1.7092013735   -0.2808709260
     34  C         1.8883018934   -0.8385039010   -0.0596035688
     35  C         3.3405093916   -1.1323092226   -0.1907210883
     36  C         4.2528924251   -0.1796858933    0.0557930262
     37  H         3.6956697542   -2.1102825567   -0.4847437251
     38  H         1.6338424697    0.1753070288    0.2433300855
     39  H        -0.6491711114   -0.1637526013    0.2190111914
     40  C         5.7058032281   -0.4665265519   -0.0728168587
     41  C         6.6875955339    0.4387349668    0.1564633586
     42  C         8.1023471626   -0.0275322249   -0.0220146095
     43  C         9.2073762149    0.7210995067    0.1573793530
     44  H         9.1183973153    1.7479002075    0.4541087096
     45  H         8.2447258452   -1.0634935118   -0.3232356191
     46  C        10.5539961025    0.1229429975   -0.0562514525
     47  C        11.7470564662    0.7541264285    0.0861870460
     48  H        10.5688402167   -0.9233508036   -0.3554586346
     49  C        12.9815577208   -0.0456831538   -0.1810718413
     50  C        14.2250557246    0.4416735473   -0.0812092117
     51  H        14.4259576628    1.4676397174    0.2052485384
     52  H        12.8806031543   -1.0874907398   -0.4751708298
     53  H        15.0726373076   -0.2026846916   -0.2918226020
     54  H         3.9156393617    0.8087313460    0.3519996461
     55  H         5.9825603058   -1.4754823571   -0.3717861603
     56  C        -4.2761121146   -3.4521842631   -0.6440740642
     57  H        -3.3220229772   -3.9694459802   -0.8305863800
     58  H        -4.8638404174   -3.5081280209   -1.5843984704
     59  H        -4.8087951654   -4.0306224649    0.1395048082
     60  C         1.0812056535   -3.1501212457   -0.7071900419
     61  H         2.1325869774   -3.4558632385   -0.8296310448
     62  H         0.5812697733   -3.3206027849   -1.6836614507
     63  H         0.6362357193   -3.8262427780    0.0526667262
     64  C         6.3317691283    1.8537203917    0.5743312233
     65  H         5.7076966707    2.3282252027   -0.2122355419
     66  H         5.7624396812    1.8282763331    1.5274941804
     67  H         7.1972021984    2.5160951779    0.7375323339
     68  C        11.8872887153    2.2078947277    0.4966068783
     69  H        10.9398776471    2.7402349685    0.6782766414
     70  H        12.4212868080    2.7640118943   -0.3021590494
     71  H        12.4760899213    2.2681594979    1.4358210457
     72  O        -6.1940668293   -0.7440937436    1.7973415090
     73  O        -6.1186666366   -1.9087407902    1.1471461175
     74  H        -6.2026112221   -1.4161728474   -0.8544648643
     75  H        -4.7234918034    0.4770369518    1.0696354520
   Point Group: c1    Number of degrees of freedom:   219


   Energy is  -1356.135885509


 Attempting to Generate Delocalized Internal Coordinates

219 Hessian modes will be used to form the next step
  Hessian Eigenvalues:
     0.002576    0.002714    0.003386    0.003972    0.005316    0.006838
     0.006889    0.006919    0.007150    0.007389    0.007569    0.009052
     0.009144    0.009570    0.009836    0.010629    0.010647    0.010771
     0.010843    0.010961    0.012025    0.012325    0.013228    0.013699
     0.013807    0.014098    0.019336    0.019466    0.019484    0.019536
     0.019603    0.019819    0.019846    0.019953    0.020060    0.020121
     0.020416    0.027526    0.028061    0.028064    0.028361    0.029452
     0.029456    0.030092    0.030434    0.030434    0.031020    0.032322
     0.036130    0.037317    0.045152    0.047449    0.049619    0.051732
     0.051854    0.052756    0.054079    0.054399    0.055026    0.057030
     0.060580    0.067368    0.068002    0.068093    0.068324    0.068755
     0.068833    0.073746    0.074269    0.074386    0.074669    0.074683
     0.075230    0.077619    0.077934    0.082240    0.089245    0.095229
     0.097830    0.100611    0.120392    0.122258    0.131465    0.133205
     0.159146    0.160000    0.160000    0.160000    0.160000    0.160000
     0.160000    0.160000    0.160000    0.160000    0.160000    0.160000
     0.160000    0.160000    0.160000    0.160000    0.160000    0.160000
     0.160000    0.160000    0.160000    0.160000    0.160000    0.160000
     0.160000    0.160000    0.160000    0.160000    0.160000    0.160000
     0.160000    0.160000    0.160000    0.160000    0.160000    0.186661
     0.204702    0.220000    0.220000    0.220000    0.220000    0.220000
     0.220000    0.220000    0.220000    0.220000    0.220000    0.220000
     0.229413    0.249996    0.249996    0.249998    0.250000    0.250000
     0.250000    0.250000    0.250000    0.250000    0.250000    0.260839
     0.265125    0.276582    0.277475    0.281858    0.291056    0.294420
     0.294974    0.298013    0.302612    0.305893    0.306274    0.306489
     0.308201    0.309984    0.321062    0.322766    0.323264    0.323500
     0.323808    0.323925    0.323962    0.324355    0.324491    0.324637
     0.325425    0.325427    0.325684    0.325760    0.325784    0.325800
     0.325811    0.325835    0.325837    0.325887    0.326894    0.327162
     0.327572    0.329043    0.331111    0.331578    0.332232    0.334646
     0.334831    0.334884    0.335502    0.335549    0.335707    0.337337
     0.338328    0.339660    0.350056    0.350134    0.350192    0.350327
     0.350413    0.351358    0.353305    0.353575    0.355170    0.358482
     0.361499    0.363344    0.369142    0.395149    0.461685    0.475996
     0.524925    0.526859    0.535055    0.535113    0.539743    0.557198
     0.557274    0.567807    0.573578

 Minimum Search - Taking Simple RFO Step
 Searching for Lamda that Minimizes Along All modes
 Value Taken    Lamda =  -0.07053715
 Calculated Step too Large.  Step scaled by  0.720887
 Step Taken.  Stepsize is  0.300000

                             Maximum     Tolerance    Cnvgd?
         Gradient           0.076346      0.000300      NO
         Displacement       0.088664      0.001200      NO
         Energy change     *********      0.000001      NO


 New Cartesian Coordinates Obtained by Inverse Iteration

 Displacement from previous Coordinates is:  1.797894
 ----------------------------------------------------------------
             Standard Nuclear Orientation (Angstroms)
    I     Atom           X                Y                Z
 ----------------------------------------------------------------
    1      C      -0.5499031181    -1.3137193634    -0.1216142374
    2      C      -1.6773161220    -2.0561333549    -0.3019943307
    3      C      -3.0150334586    -1.4789598101    -0.0922535384
    4      C      -4.2134903471    -2.1112851265    -0.2418758499
    5      C      -5.5512045662    -1.4173266248     0.0058121772
    6      C      -5.6568209813    -0.0492964385     0.7133347902
    7      H      -1.5834371922    -3.0933483196    -0.6066366495
    8      H      -3.0022406133    -0.4353662263     0.2156435464
    9      C      -6.6215437679     0.9696081326     0.0600014958
   10      C      -6.2780969486     1.5344655270    -1.1405431749
   11      C      -7.1914948132     2.4815837971    -1.9048469535
   12      C      -8.6405136828     2.4666222819    -1.4035327340
   13      H      -7.1962530906     2.2139005795    -2.9812167378
   14      H      -6.7648457371     3.5032851726    -1.8264619303
   15      C      -8.6252631703     2.5802851861     0.1186700550
   16      H      -9.1417091301     1.5301032450    -1.7101749105
   17      H      -9.1974039716     3.3044456865    -1.8663667516
   18      C      -7.9509143711     1.3407009233     0.7848705995
   19      H      -9.6483332328     2.7052791343     0.5236551867
   20      H      -8.0622248937     3.5017204348     0.3745544380
   21      C      -4.9551493427     1.2923229384    -1.8457887724
   22      H      -4.2632825939     0.6336312665    -1.3075847514
   23      H      -4.4323828887     2.2569042845    -1.9968707364
   24      H      -5.1299278114     0.8444701629    -2.8429751524
   25      C      -8.9366188279     0.1378089297     0.7519675678
   26      H      -9.1435816025    -0.1938163549    -0.2811819972
   27      H      -9.8998404281     0.4145058553     1.2233905833
   28      H      -8.5467724599    -0.7318569673     1.3028173001
   29      C      -7.6910479365     1.7425496597     2.2658754009
   30      H      -6.9830685358     2.5910204468     2.3243825991
   31      H      -7.2842329330     0.9201679317     2.8750263389
   32      H      -8.6381067174     2.0539936433     2.7472046431
   33      C       0.8326978006    -1.8024790597    -0.3082474089
   34      C       1.8571074713    -0.9193957986    -0.0839098672
   35      C       3.2956285362    -1.1777242911    -0.2037229453
   36      C       4.2229456719    -0.2101730159     0.0463498179
   37      H       3.6483324948    -2.1636919425    -0.4992684568
   38      H       1.5947599897     0.0969251419     0.2196343404
   39      H      -0.6597604717    -0.2709063863     0.1857171994
   40      C       5.6633207533    -0.4600008887    -0.0698780698
   41      C       6.6575372533     0.4561392349     0.1605569656
   42      C       8.0547287325     0.0066195063    -0.0103751702
   43      C       9.1760697066     0.7598817702     0.1677930396
   44      H       9.0882547850     1.7985546940     0.4635668371
   45      H       8.1840011749    -1.0364693655    -0.3095598754
   46      C      10.5156576892     0.1918841837    -0.0340447423
   47      C      11.7181607867     0.8308436572     0.1073012205
   48      H      10.5338907714    -0.8598591357    -0.3297959579
   49      C      12.9496636769     0.0486736072    -0.1502185146
   50      C      14.2094295234     0.5265514011    -0.0558533973
   51      H      14.4245372866     1.5556393338     0.2256842210
   52      H      12.8230838005    -0.9970434774    -0.4388656998
   53      H      15.0595045906    -0.1225014761    -0.2640634529
   54      H       3.8819042742     0.7816060760     0.3423172375
   55      H       5.9467410082    -1.4718732110    -0.3678055048
   56      C      -4.3722144221    -3.5591372866    -0.6646708601
   57      H      -3.4276778745    -4.0878548505    -0.8520825345
   58      H      -4.9718575945    -3.6162605937    -1.5942443461
   59      H      -4.9134041178    -4.1223516411     0.1193727245
   60      C       1.0367680916    -3.2445480911    -0.7343552940
   61      H       2.0911291731    -3.5301763705    -0.8510396937
   62      H       0.5404975753    -3.4283376457    -1.7060933033
   63      H       0.5946035051    -3.9290417700     0.0140596713
   64      C       6.3286251041     1.8818984290     0.5768260317
   65      H       5.7120149996     2.3748538702    -0.1969777675
   66      H       5.7650384069     1.8841516846     1.5278808427
   67      H       7.2156133451     2.5140563130     0.7297621452
   68      C      11.8675866557     2.2855786559     0.5097838171
   69      H      10.9134807648     2.8020100142     0.6838417374
   70      H      12.4024244003     2.8452583544    -0.2807780265
   71      H      12.4565774213     2.3624354639     1.4431831555
   72      O      -6.2166465845    -0.7539419429     1.8294158346
   73      O      -6.1790059724    -1.9926839303     1.1629499392
   74      H      -6.2229246076    -1.4963429074    -0.8751617204
   75      H      -4.7052738960     0.4231765188     1.0197115238
 ----------------------------------------------------------------
 Molecular Point Group                 C1    NOp =  1
 Largest Abelian Subgroup              C1    NOp =  1
 Nuclear Repulsion Energy =  2876.3483912717 hartrees
 There are      122 alpha and      122 beta electrons
 Applying Cartesian multipole field
    Component          Value
    ---------          -----
     (2,0,0)        1.00000E-12
     (0,2,0)        2.00000E-11
     (0,0,2)       -3.00000E-11
 Nucleus-field energy     =     0.0000000769 hartrees
 Requested basis set is 6-31G(d,p)
 There are 258 shells and 705 basis functions
 A cutoff of  1.0D-11 yielded  11013 shell pairs
 There are     84330 function pairs
 Smallest overlap matrix eigenvalue = 9.87E-04
 Guess MOs from SCF MO coefficient file

 -----------------------------------------------------------------------
  General SCF calculation program by
  Eric Jon Sundstrom, Paul Horn, Yuezhi Mao, Dmitri Zuev, Alec White,
  David Stuck, Shaama M.S., Shane Yost, Joonho Lee, David Small,
  Daniel Levine, Susi Lehtola, Hugh Burton, Evgeny Epifanovsky
 -----------------------------------------------------------------------
 Exchange:  B88      Correlation:  LYP
 Using SG-1 standard quadrature grid
 using 12 threads for integral computing
 -------------------------------------------------------
 OpenMP Integral computing Module                
 Release: version 1.0, May 2013, Q-Chem Inc. Pittsburgh 
 -------------------------------------------------------
 -------------------------------------------------------
 OpenMP BLAS3 based DFT computing Module                
 Release: version 1.0, May 2013, Q-Chem Inc. Pittsburgh 
 -------------------------------------------------------
 A restricted SCF calculation will be
 performed using DIIS
 SCF converges when DIIS error is below 1.0e-08
 ---------------------------------------
  Cycle       Energy         DIIS error
 ---------------------------------------
    1   -1356.1590209338      3.54e-04  
    2   -1356.1728638271      7.99e-05  
    3   -1356.1724521036      1.11e-04  
    4   -1356.1731065366      4.41e-05  
    5   -1356.1732281598      1.55e-05  
    6   -1356.1732446260      5.00e-06  
    7   -1356.1732461503      1.31e-06  
    8   -1356.1732462283      6.96e-07  
    9   -1356.1732462602      3.12e-07  
   10   -1356.1732462677      7.67e-08  
   11   -1356.1732462680      3.19e-08  
   12   -1356.1732462680      1.05e-08  
   13   -1356.1732462681      4.22e-09  Convergence criterion met
 ---------------------------------------
 SCF time:   CPU 671.18s  wall 56.00s 
 SCF   energy in the final basis set =    -1356.1732462681
 Total energy in the final basis set =    -1356.1732462681
 
 --------------------------------------------------------------
 
                    Orbital Energies (a.u.)
 --------------------------------------------------------------
 
 Alpha MOs
 -- Occupied --
-18.836 -18.835  -9.985  -9.984  -9.939  -9.939  -9.938  -9.935
 -9.934  -9.930  -9.929  -9.928  -9.928  -9.928  -9.928  -9.927
 -9.927  -9.927  -9.926  -9.926  -9.926  -9.925  -9.925  -9.924
 -9.924  -9.923  -9.921  -9.920  -9.914  -9.914  -9.911  -9.902
 -9.900  -1.055  -0.797  -0.752  -0.745  -0.740  -0.730  -0.724
 -0.701  -0.695  -0.684  -0.675  -0.662  -0.645  -0.643  -0.624
 -0.612  -0.610  -0.601  -0.593  -0.592  -0.588  -0.556  -0.536
 -0.522  -0.508  -0.494  -0.489  -0.484  -0.474  -0.471  -0.463
 -0.455  -0.451  -0.448  -0.437  -0.426  -0.414  -0.411  -0.406
 -0.394  -0.387  -0.385  -0.380  -0.377  -0.368  -0.367  -0.366
 -0.364  -0.363  -0.362  -0.360  -0.357  -0.352  -0.345  -0.340
 -0.339  -0.338  -0.332  -0.327  -0.324  -0.323  -0.320  -0.319
 -0.314  -0.310  -0.308  -0.305  -0.301  -0.297  -0.292  -0.291
 -0.289  -0.288  -0.286  -0.283  -0.280  -0.279  -0.277  -0.270
 -0.264  -0.253  -0.249  -0.241  -0.230  -0.205  -0.186  -0.178
 -0.158  -0.148
 -- Virtual --
 -0.088  -0.054  -0.023  -0.013   0.005   0.013   0.037   0.056
  0.058   0.060   0.063   0.065   0.067   0.074   0.075   0.080
  0.084   0.085   0.088   0.092   0.096   0.100   0.104   0.105
  0.110   0.112   0.124   0.126   0.130   0.133   0.139   0.142
  0.144   0.147   0.149   0.150   0.151   0.153   0.153   0.154
  0.157   0.157   0.161   0.165   0.167   0.171   0.173   0.177
  0.182   0.188   0.191   0.192   0.194   0.200   0.201   0.205
  0.207   0.208   0.212   0.216   0.220   0.227   0.238   0.245
  0.254   0.255   0.256   0.267   0.278   0.306   0.309   0.316
  0.328   0.331   0.337   0.353   0.364   0.368   0.374   0.383
  0.400   0.403   0.404   0.412   0.431   0.444   0.452   0.456
  0.463   0.466   0.469   0.471   0.473   0.480   0.485   0.486
  0.489   0.495   0.497   0.502   0.508   0.509   0.513   0.520
  0.522   0.523   0.527   0.530   0.531   0.537   0.539   0.544
  0.556   0.560   0.564   0.567   0.570   0.574   0.581   0.586
  0.588   0.589   0.591   0.598   0.600   0.608   0.609   0.615
  0.621   0.627   0.632   0.637   0.639   0.656   0.657   0.661
  0.663   0.670   0.674   0.675   0.675   0.679   0.687   0.696
  0.698   0.699   0.704   0.707   0.711   0.711   0.723   0.729
  0.730   0.744   0.751   0.753   0.754   0.762   0.767   0.768
  0.774   0.777   0.783   0.786   0.789   0.794   0.800   0.807
  0.808   0.811   0.814   0.814   0.817   0.822   0.825   0.832
  0.834   0.836   0.837   0.839   0.842   0.845   0.847   0.854
  0.859   0.860   0.866   0.867   0.871   0.878   0.881   0.886
  0.888   0.890   0.897   0.897   0.902   0.904   0.912   0.919
  0.925   0.929   0.936   0.938   0.942   0.949   0.964   0.968
  0.982   0.994   1.002   1.004   1.016   1.029   1.032   1.036
  1.040   1.048   1.048   1.060   1.067   1.078   1.082   1.096
  1.098   1.117   1.122   1.137   1.139   1.149   1.154   1.180
  1.193   1.205   1.215   1.218   1.221   1.225   1.228   1.229
  1.239   1.243   1.249   1.251   1.262   1.265   1.271   1.277
  1.282   1.283   1.286   1.312   1.313   1.329   1.332   1.345
  1.348   1.352   1.371   1.373   1.390   1.396   1.408   1.414
  1.430   1.432   1.439   1.444   1.447   1.455   1.459   1.477
  1.484   1.492   1.503   1.510   1.525   1.533   1.559   1.569
  1.593   1.600   1.616   1.632   1.647   1.671   1.676   1.682
  1.687   1.690   1.691   1.696   1.698   1.702   1.705   1.709
  1.711   1.714   1.724   1.735   1.746   1.753   1.756   1.761
  1.770   1.777   1.780   1.784   1.788   1.796   1.800   1.802
  1.803   1.805   1.812   1.816   1.827   1.829   1.831   1.842
  1.847   1.855   1.864   1.869   1.871   1.877   1.885   1.892
  1.895   1.897   1.899   1.908   1.912   1.931   1.938   1.956
  1.966   1.970   1.972   1.975   1.976   1.977   1.978   1.980
  1.986   1.992   1.997   1.999   2.002   2.006   2.008   2.011
  2.013   2.015   2.021   2.026   2.027   2.032   2.036   2.038
  2.046   2.049   2.059   2.061   2.067   2.074   2.078   2.081
  2.087   2.092   2.105   2.106   2.117   2.119   2.124   2.126
  2.136   2.139   2.150   2.153   2.159   2.166   2.171   2.174
  2.191   2.194   2.204   2.216   2.229   2.235   2.238   2.247
  2.259   2.266   2.267   2.281   2.285   2.285   2.296   2.303
  2.314   2.323   2.329   2.333   2.340   2.343   2.349   2.352
  2.360   2.362   2.370   2.379   2.383   2.385   2.393   2.398
  2.399   2.407   2.415   2.416   2.427   2.434   2.442   2.446
  2.455   2.472   2.473   2.481   2.485   2.492   2.503   2.510
  2.514   2.527   2.529   2.533   2.541   2.543   2.551   2.552
  2.556   2.562   2.575   2.576   2.587   2.594   2.595   2.600
  2.604   2.609   2.617   2.622   2.634   2.636   2.640   2.645
  2.652   2.656   2.660   2.669   2.672   2.680   2.697   2.704
  2.708   2.713   2.723   2.726   2.738   2.747   2.754   2.761
  2.764   2.767   2.776   2.781   2.788   2.788   2.790   2.792
  2.799   2.805   2.811   2.824   2.827   2.833   2.836   2.838
  2.848   2.852   2.853   2.866   2.866   2.881   2.889   2.900
  2.915   2.943   2.960   2.964   2.973   2.979   2.999   3.015
  3.020   3.021   3.053   3.099   3.108   3.131   3.134   3.135
  3.138   3.143   3.158   3.184   3.196   3.224   3.249   3.275
  3.303   3.308   3.321   3.323   3.325   3.327   3.327   3.331
  3.332   3.341   3.347   3.352   3.361   3.364   3.384   3.386
  3.386   3.392   3.406   3.418   3.421   3.430   3.454   3.462
  3.477   3.484   3.511   3.536   3.546   3.597   3.706   4.003
  4.016   4.022   4.029   4.049   4.064   4.083   4.107   4.139
  4.169   4.189   4.235   4.278   4.294   4.322   4.362   4.383
  4.394   4.398   4.424   4.430   4.458   4.473   4.540   4.555
  4.561   4.601   4.636   4.654   4.679   4.707   4.752
 --------------------------------------------------------------
 
          Ground-State Mulliken Net Atomic Charges

     Atom                 Charge (a.u.)
  ----------------------------------------
      1 C                    -0.091121
      2 C                    -0.057592
      3 C                    -0.087461
      4 C                     0.125495
      5 C                     0.120900
      6 C                     0.114877
      7 H                     0.055261
      8 H                     0.048020
      9 C                     0.058691
     10 C                     0.085253
     11 C                    -0.194105
     12 C                    -0.159938
     13 H                     0.077334
     14 H                     0.087505
     15 C                    -0.137143
     16 H                     0.083090
     17 H                     0.066128
     18 C                     0.044575
     19 H                     0.066385
     20 H                     0.068934
     21 C                    -0.350389
     22 H                     0.095101
     23 H                     0.100872
     24 H                     0.101733
     25 C                    -0.289576
     26 H                     0.079116
     27 H                     0.076910
     28 H                     0.120528
     29 C                    -0.297121
     30 H                     0.077662
     31 H                     0.112282
     32 H                     0.081367
     33 C                     0.151934
     34 C                    -0.118100
     35 C                    -0.047399
     36 C                    -0.049399
     37 H                     0.054703
     38 H                     0.050551
     39 H                     0.050566
     40 C                    -0.115365
     41 C                     0.144722
     42 C                    -0.087327
     43 C                    -0.056762
     44 H                     0.054036
     45 H                     0.051652
     46 C                    -0.112259
     47 C                     0.151524
     48 H                     0.050478
     49 C                    -0.035994
     50 C                    -0.230469
     51 H                     0.077419
     52 H                     0.055488
     53 H                     0.078504
     54 H                     0.055289
     55 H                     0.050332
     56 C                    -0.350486
     57 H                     0.102078
     58 H                     0.103541
     59 H                     0.128368
     60 C                    -0.358730
     61 H                     0.097494
     62 H                     0.110952
     63 H                     0.112929
     64 C                    -0.359504
     65 H                     0.114215
     66 H                     0.114725
     67 H                     0.096319
     68 C                    -0.360334
     69 H                     0.095385
     70 H                     0.111560
     71 H                     0.111649
     72 O                    -0.280631
     73 O                    -0.271682
     74 H                     0.081637
     75 H                     0.092814
  ----------------------------------------
  Sum of atomic charges =    -0.000000

 -----------------------------------------------------------------
                    Cartesian Multipole Moments
 -----------------------------------------------------------------
    Charge (ESU x 10^10)
                -0.0000
    Dipole Moment (Debye)
         X       1.4168      Y       1.0473      Z      -2.1398
       Tot       2.7719
    Quadrupole Moments (Debye-Ang)
        XX    -212.2110     XY      -2.4357     YY    -190.0211
        XZ      15.0135     YZ       7.7104     ZZ    -209.3960
    Octopole Moments (Debye-Ang^2)
       XXX      43.7108    XXY      97.4394    XYY      29.2959
       YYY     -24.8255    XXZ     -69.9737    XYZ       7.5052
       YYZ     -11.1251    XZZ     -38.7085    YZZ       4.9440
       ZZZ       4.1543
    Hexadecapole Moments (Debye-Ang^3)
      XXXX  -65886.0817   XXXY      64.5298   XXYY  -11104.8029
      XYYY      16.1735   YYYY   -3783.7340   XXXZ     498.6630
      XXYZ     376.5453   XYYZ      42.0446   YYYZ     -12.0140
      XXZZ  -11654.5436   XYZZ     -43.0192   YYZZ    -868.6418
      XZZZ     -12.1060   YZZZ     -24.9589   ZZZZ   -1295.3676
 -----------------------------------------------------------------
 Calculating analytic gradient of the SCF energy
 Gradient of SCF Energy
            1           2           3           4           5           6
    1  -0.0199255   0.0176270  -0.0112346   0.0006239  -0.0191955   0.0008952
    2   0.0082927  -0.0098863   0.0124647  -0.0024455  -0.0011510  -0.0188504
    3   0.0030076  -0.0034024   0.0030234   0.0044925   0.0207322   0.0158384
            7           8           9          10          11          12
    1   0.0017288   0.0008710  -0.0016172   0.0006509   0.0012408   0.0030868
    2   0.0042452  -0.0041965  -0.0104966   0.0066960   0.0027065  -0.0045394
    3   0.0010522  -0.0015528   0.0088166  -0.0087378   0.0033737   0.0027606
           13          14          15          16          17          18
    1  -0.0050497   0.0017448  -0.0000428  -0.0006617   0.0003536  -0.0005194
    2  -0.0016497  -0.0001008  -0.0017288  -0.0017243   0.0024100   0.0007881
    3  -0.0012668   0.0027504   0.0010572   0.0010332  -0.0013181  -0.0052240
           19          20          21          22          23          24
    1  -0.0026962   0.0012718  -0.0005764   0.0004669   0.0007368  -0.0019800
    2   0.0012223   0.0025495   0.0006406   0.0000485   0.0013324  -0.0020375
    3  -0.0004849  -0.0022952  -0.0003699   0.0003383   0.0024252  -0.0002150
           25          26          27          28          29          30
    1   0.0046376   0.0005558  -0.0016881  -0.0009648  -0.0032439   0.0021714
    2   0.0057202  -0.0013544  -0.0005897  -0.0021240  -0.0002866   0.0009083
    3  -0.0010164  -0.0016073   0.0016934   0.0014863  -0.0066882  -0.0000992
           31          32          33          34          35          36
    1   0.0005004  -0.0016427   0.0179442  -0.0248442   0.0278960  -0.0290134
    2  -0.0005757  -0.0006184  -0.0042005   0.0053329  -0.0044292   0.0030149
    3   0.0022755   0.0022704  -0.0017599   0.0022915  -0.0021054   0.0017367
           37          38          39          40          41          42
    1   0.0006105   0.0007160  -0.0009884   0.0259409  -0.0230104   0.0236206
    2   0.0040240  -0.0022331  -0.0025466  -0.0037765   0.0039307  -0.0082065
    3   0.0011987  -0.0006953  -0.0006935  -0.0019916   0.0019213  -0.0029593
           43          44          45          46          47          48
    1  -0.0231512  -0.0007115   0.0008242   0.0196779  -0.0104296  -0.0000465
    2   0.0118377  -0.0050948   0.0024398  -0.0102337   0.0067394   0.0023489
    3   0.0039760  -0.0013817   0.0006122  -0.0034904   0.0022233   0.0005998
           49          50          51          52          53          54
    1   0.0074992  -0.0028338  -0.0013824   0.0035234  -0.0023779   0.0000339
    2  -0.0104710   0.0018490  -0.0017141   0.0021749  -0.0004008  -0.0027974
    3  -0.0031939   0.0006659  -0.0004868   0.0004759  -0.0000460  -0.0008300
           55          56          57          58          59          60
    1  -0.0007643   0.0030255  -0.0007118   0.0006531   0.0006578   0.0011886
    2   0.0021718   0.0014470  -0.0023964   0.0012839  -0.0005753   0.0013663
    3   0.0006481   0.0003738  -0.0009276  -0.0020570   0.0022878   0.0003250
           61          62          63          64          65          66
    1   0.0002174   0.0001342   0.0003580   0.0001426   0.0002471   0.0004037
    2  -0.0023114   0.0015566  -0.0000092  -0.0020152   0.0000882  -0.0015068
    3  -0.0006875  -0.0024148   0.0029156  -0.0005739  -0.0029011   0.0024665
           67          68          69          70          71          72
    1   0.0002512  -0.0014988   0.0003600  -0.0005906  -0.0005093   0.0085541
    2   0.0022795  -0.0007551   0.0022478   0.0000334  -0.0013893  -0.0423052
    3   0.0006132  -0.0002435   0.0007003  -0.0028068   0.0025613  -0.0498930
           73          74          75
    1   0.0134193  -0.0032151   0.0000546
    2   0.0669205   0.0005830   0.0000284
    3   0.0073008  -0.0003711   0.0024678
 Max gradient component =       6.692E-02
 RMS gradient           =       9.111E-03
 Gradient time:  CPU 87.03 s  wall 8.39 s
 Geometry Optimization Parameters
   NAtoms,    NIC,     NZ,  NCons,   NDum,   NFix, NCnnct, MaxDiis
       75     539       0       0       0       0       0       0

 Cartesian Hessian Update
 Hessian Updated using BFGS Update


** GEOMETRY OPTIMIZATION IN DELOCALIZED INTERNAL COORDINATES **
   Searching for a Minimum

   Optimization Cycle:   2

                       Coordinates (Angstroms)
     ATOM                X               Y               Z
      1  C        -0.5499031181   -1.3137193634   -0.1216142374
      2  C        -1.6773161220   -2.0561333549   -0.3019943307
      3  C        -3.0150334586   -1.4789598101   -0.0922535384
      4  C        -4.2134903471   -2.1112851265   -0.2418758499
      5  C        -5.5512045662   -1.4173266248    0.0058121772
      6  C        -5.6568209813   -0.0492964385    0.7133347902
      7  H        -1.5834371922   -3.0933483196   -0.6066366495
      8  H        -3.0022406133   -0.4353662263    0.2156435464
      9  C        -6.6215437679    0.9696081326    0.0600014958
     10  C        -6.2780969486    1.5344655270   -1.1405431749
     11  C        -7.1914948132    2.4815837971   -1.9048469535
     12  C        -8.6405136828    2.4666222819   -1.4035327340
     13  H        -7.1962530906    2.2139005795   -2.9812167378
     14  H        -6.7648457371    3.5032851726   -1.8264619303
     15  C        -8.6252631703    2.5802851861    0.1186700550
     16  H        -9.1417091301    1.5301032450   -1.7101749105
     17  H        -9.1974039716    3.3044456865   -1.8663667516
     18  C        -7.9509143711    1.3407009233    0.7848705995
     19  H        -9.6483332328    2.7052791343    0.5236551867
     20  H        -8.0622248937    3.5017204348    0.3745544380
     21  C        -4.9551493427    1.2923229384   -1.8457887724
     22  H        -4.2632825939    0.6336312665   -1.3075847514
     23  H        -4.4323828887    2.2569042845   -1.9968707364
     24  H        -5.1299278114    0.8444701629   -2.8429751524
     25  C        -8.9366188279    0.1378089297    0.7519675678
     26  H        -9.1435816025   -0.1938163549   -0.2811819972
     27  H        -9.8998404281    0.4145058553    1.2233905833
     28  H        -8.5467724599   -0.7318569673    1.3028173001
     29  C        -7.6910479365    1.7425496597    2.2658754009
     30  H        -6.9830685358    2.5910204468    2.3243825991
     31  H        -7.2842329330    0.9201679317    2.8750263389
     32  H        -8.6381067174    2.0539936433    2.7472046431
     33  C         0.8326978006   -1.8024790597   -0.3082474089
     34  C         1.8571074713   -0.9193957986   -0.0839098672
     35  C         3.2956285362   -1.1777242911   -0.2037229453
     36  C         4.2229456719   -0.2101730159    0.0463498179
     37  H         3.6483324948   -2.1636919425   -0.4992684568
     38  H         1.5947599897    0.0969251419    0.2196343404
     39  H        -0.6597604717   -0.2709063863    0.1857171994
     40  C         5.6633207533   -0.4600008887   -0.0698780698
     41  C         6.6575372533    0.4561392349    0.1605569656
     42  C         8.0547287325    0.0066195063   -0.0103751702
     43  C         9.1760697066    0.7598817702    0.1677930396
     44  H         9.0882547850    1.7985546940    0.4635668371
     45  H         8.1840011749   -1.0364693655   -0.3095598754
     46  C        10.5156576892    0.1918841837   -0.0340447423
     47  C        11.7181607867    0.8308436572    0.1073012205
     48  H        10.5338907714   -0.8598591357   -0.3297959579
     49  C        12.9496636769    0.0486736072   -0.1502185146
     50  C        14.2094295234    0.5265514011   -0.0558533973
     51  H        14.4245372866    1.5556393338    0.2256842210
     52  H        12.8230838005   -0.9970434774   -0.4388656998
     53  H        15.0595045906   -0.1225014761   -0.2640634529
     54  H         3.8819042742    0.7816060760    0.3423172375
     55  H         5.9467410082   -1.4718732110   -0.3678055048
     56  C        -4.3722144221   -3.5591372866   -0.6646708601
     57  H        -3.4276778745   -4.0878548505   -0.8520825345
     58  H        -4.9718575945   -3.6162605937   -1.5942443461
     59  H        -4.9134041178   -4.1223516411    0.1193727245
     60  C         1.0367680916   -3.2445480911   -0.7343552940
     61  H         2.0911291731   -3.5301763705   -0.8510396937
     62  H         0.5404975753   -3.4283376457   -1.7060933033
     63  H         0.5946035051   -3.9290417700    0.0140596713
     64  C         6.3286251041    1.8818984290    0.5768260317
     65  H         5.7120149996    2.3748538702   -0.1969777675
     66  H         5.7650384069    1.8841516846    1.5278808427
     67  H         7.2156133451    2.5140563130    0.7297621452
     68  C        11.8675866557    2.2855786559    0.5097838171
     69  H        10.9134807648    2.8020100142    0.6838417374
     70  H        12.4024244003    2.8452583544   -0.2807780265
     71  H        12.4565774213    2.3624354639    1.4431831555
     72  O        -6.2166465845   -0.7539419429    1.8294158346
     73  O        -6.1790059724   -1.9926839303    1.1629499392
     74  H        -6.2229246076   -1.4963429074   -0.8751617204
     75  H        -4.7052738960    0.4231765188    1.0197115238
   Point Group: c1    Number of degrees of freedom:   219


   Energy is  -1356.173246268

 Hessian Updated using BFGS Update

174 Hessian modes will be used to form the next step
  Hessian Eigenvalues:
     0.002576    0.002714    0.003386    0.003972    0.005316    0.006838
     0.006889    0.006919    0.007150    0.007389    0.007575    0.009051
     0.009144    0.009570    0.009836    0.010629    0.010648    0.010774
     0.010843    0.010961    0.012029    0.012330    0.013228    0.013699
     0.013807    0.014101    0.019336    0.019468    0.019484    0.019536
     0.019603    0.019819    0.019846    0.019953    0.020060    0.020121
     0.020416    0.027526    0.028061    0.028065    0.028362    0.029452
     0.029456    0.030092    0.030434    0.030434    0.031020    0.032319
     0.036258    0.037316    0.045233    0.047446    0.049607    0.051753
     0.051853    0.052756    0.054090    0.054391    0.055020    0.056997
     0.060565    0.067367    0.068002    0.068093    0.068371    0.068755
     0.068833    0.073738    0.074264    0.074377    0.074649    0.074684
     0.075278    0.077632    0.078015    0.082373    0.089242    0.095222
     0.097781    0.101051    0.120372    0.122295    0.131035    0.133482
     0.157807    0.159204    0.163431    0.186668    0.204717    0.214267
     0.222133    0.229384    0.248930    0.249996    0.249997    0.249999
     0.250000    0.255153    0.260857    0.265143    0.276326    0.277228
     0.281884    0.287582    0.291856    0.295600    0.298806    0.303776
     0.305811    0.306251    0.306462    0.307283    0.308639    0.310272
     0.321146    0.322818    0.323314    0.323856    0.323951    0.323955
     0.324411    0.324445    0.324598    0.324913    0.325426    0.325587
     0.325694    0.325766    0.325793    0.325806    0.325823    0.325836
     0.325878    0.326446    0.327232    0.327645    0.328277    0.330563
     0.331315    0.331749    0.332275    0.334653    0.334853    0.335071
     0.335563    0.335737    0.336631    0.337988    0.339667    0.350065
     0.350141    0.350237    0.350331    0.350457    0.351408    0.353251
     0.353725    0.355267    0.358522    0.361862    0.363475    0.369753
     0.395014    0.440163    0.475614    0.502627    0.526865    0.534887
     0.535230    0.539902    0.556747    0.557859    0.568222    0.575717

 Minimum Search - Taking Simple RFO Step
 Searching for Lamda that Minimizes Along All modes
 Value Taken    Lamda =  -0.02540907
 Calculated Step too Large.  Step scaled by  0.943452
 Step Taken.  Stepsize is  0.300000

                             Maximum     Tolerance    Cnvgd?
         Gradient           0.036520      0.000300      NO
         Displacement       0.074844      0.001200      NO
         Energy change     -0.037361      0.000001      NO


 New Cartesian Coordinates Obtained by Inverse Iteration

 Displacement from previous Coordinates is:  1.279059
 ----------------------------------------------------------------
             Standard Nuclear Orientation (Angstroms)
    I     Atom           X                Y                Z
 ----------------------------------------------------------------
    1      C      -0.5486995937    -1.3607305288    -0.1138108354
    2      C      -1.6965718361    -2.0886965217    -0.3025579398
    3      C      -3.0165071922    -1.5308213297    -0.0826493653
    4      C      -4.2191076739    -2.1553874139    -0.2444874315
    5      C      -5.5483271598    -1.4641334902     0.0086273996
    6      C      -5.6638713983    -0.0767902080     0.7060510112
    7      H      -1.6208668898    -3.1265590509    -0.6327970414
    8      H      -3.0133665972    -0.4870979823     0.2477762435
    9      C      -6.6020179220     0.9605537939     0.0466879182
   10      C      -6.2497738234     1.4846855546    -1.1600509918
   11      C      -7.1330436548     2.4569677010    -1.9373820776
   12      C      -8.5800069389     2.5123395850    -1.4149688991
   13      H      -7.1274871524     2.1757285679    -3.0069982122
   14      H      -6.6744887813     3.4653162873    -1.8874771000
   15      C      -8.5373295039     2.6324400158     0.1151464489
   16      H      -9.1199321623     1.5964132766    -1.7091135355
   17      H      -9.1161518595     3.3619077042    -1.8712588112
   18      C      -7.9021435208     1.3788984011     0.7954910680
   19      H      -9.5439480210     2.7928866425     0.5371202583
   20      H      -7.9392987908     3.5270223765     0.3707457514
   21      C      -4.9425449312     1.1822686929    -1.8791166579
   22      H      -4.2673127915     0.5091695624    -1.3389724529
   23      H      -4.3900827328     2.1214976281    -2.0662659540
   24      H      -5.1342314892     0.7302479002    -2.8689400426
   25      C      -8.9372670589     0.2101365210     0.7968383564
   26      H      -9.1840063150    -0.1166630242    -0.2258444426
   27      H      -9.8729326867     0.5354090074     1.2837578692
   28      H      -8.5584936788    -0.6624486788     1.3439366394
   29      C      -7.5949301572     1.7926589934     2.2695053811
   30      H      -6.8610454604     2.6157097916     2.3046171355
   31      H      -7.2102350255     0.9602729799     2.8730097384
   32      H      -8.5205523786     2.1487849767     2.7531765744
   33      C       0.8142405695    -1.8231734774    -0.3136105828
   34      C       1.8483158613    -0.9385413761    -0.0691402193
   35      C       3.2575181031    -1.1740526223    -0.2006000836
   36      C       4.2132690407    -0.2176664932     0.0690061625
   37      H       3.5975530946    -2.1600702829    -0.5315391253
   38      H       1.5756704591     0.0694642089     0.2662896886
   39      H      -0.6514285638    -0.3208445280     0.2197822783
   40      C       5.6225506280    -0.4461149008    -0.0600010524
   41      C       6.6285598991     0.4708856615     0.1900123872
   42      C       8.0017942355     0.0462407288     0.0002771346
   43      C       9.1509413349     0.7803979801     0.1821461989
   44      H       9.0808736412     1.8195001744     0.5074654335
   45      H       8.1204740624    -0.9930552637    -0.3293401872
   46      C      10.4639762656     0.2322580156    -0.0424736401
   47      C      11.6809709339     0.8627594380     0.0997528158
   48      H      10.4808858475    -0.8156601426    -0.3657921471
   49      C      12.8956221952     0.0960149639    -0.1874782017
   50      C      14.1724285093     0.5453425751    -0.1025870474
   51      H      14.4167382339     1.5644333452     0.2022628868
   52      H      12.7336435543    -0.9423105825    -0.5003818262
   53      H      15.0129238587    -0.1098121000    -0.3395317909
   54      H       3.8794435544     0.7712425424     0.3993048638
   55      H       5.9146754721    -1.4495496244    -0.3912789541
   56      C      -4.3946438427    -3.5962257528    -0.6828223947
   57      H      -3.4438537455    -4.1136025615    -0.8665653506
   58      H      -4.9948763836    -3.6499311007    -1.6095450397
   59      H      -4.9436764454    -4.1645095284     0.0881634325
   60      C       1.0324738449    -3.2509788475    -0.7819535374
   61      H       2.0942462832    -3.5020396490    -0.9027324276
   62      H       0.5389985382    -3.4241721431    -1.7535610676
   63      H       0.6013232510    -3.9692933372    -0.0641537270
   64      C       6.2936824626     1.8838527700     0.6511857340
   65      H       5.6663242348     2.4036267335    -0.0917642255
   66      H       5.7343715023     1.8679970437     1.6013971296
   67      H       7.1866190720     2.5001947160     0.8109286575
   68      C      11.8370284809     2.3071505400     0.5364177001
   69      H      10.8766133856     2.8029557658     0.7292975042
   70      H      12.3643573814     2.8933087418    -0.2356494980
   71      H      12.4381486423     2.3723837490     1.4593252802
   72      O      -6.2303928466    -0.7665714226     1.8709170694
   73      O      -6.2097783391    -2.0680335975     1.1809966179
   74      H      -6.2080958644    -1.5458623165    -0.8751343090
   75      H      -4.7024388314     0.3822836908     0.9928946638
 ----------------------------------------------------------------
 Molecular Point Group                 C1    NOp =  1
 Largest Abelian Subgroup              C1    NOp =  1
 Nuclear Repulsion Energy =  2874.6003424971 hartrees
 There are      122 alpha and      122 beta electrons
 Applying Cartesian multipole field
    Component          Value
    ---------          -----
     (2,0,0)        1.00000E-12
     (0,2,0)        2.00000E-11
     (0,0,2)       -3.00000E-11
 Nucleus-field energy     =     0.0000000767 hartrees
 Requested basis set is 6-31G(d,p)
 There are 258 shells and 705 basis functions
 A cutoff of  1.0D-11 yielded  11013 shell pairs
 There are     84205 function pairs
 Smallest overlap matrix eigenvalue = 9.48E-04
 Guess MOs from SCF MO coefficient file

 -----------------------------------------------------------------------
  General SCF calculation program by
  Eric Jon Sundstrom, Paul Horn, Yuezhi Mao, Dmitri Zuev, Alec White,
  David Stuck, Shaama M.S., Shane Yost, Joonho Lee, David Small,
  Daniel Levine, Susi Lehtola, Hugh Burton, Evgeny Epifanovsky
 -----------------------------------------------------------------------
 Exchange:  B88      Correlation:  LYP
 Using SG-1 standard quadrature grid
 using 12 threads for integral computing
 -------------------------------------------------------
 OpenMP Integral computing Module                
 Release: version 1.0, May 2013, Q-Chem Inc. Pittsburgh 
 -------------------------------------------------------
 -------------------------------------------------------
 OpenMP BLAS3 based DFT computing Module                
 Release: version 1.0, May 2013, Q-Chem Inc. Pittsburgh 
 -------------------------------------------------------
 A restricted SCF calculation will be
 performed using DIIS
 SCF converges when DIIS error is below 1.0e-08
 ---------------------------------------
  Cycle       Energy         DIIS error
 ---------------------------------------
    1   -1356.1750381466      3.27e-04  
    2   -1356.1880379532      6.80e-05  
    3   -1356.1875342428      1.03e-04  
    4   -1356.1880508483      5.50e-05  
    5   -1356.1882811144      2.13e-05  
    6   -1356.1883142929      7.45e-06  
    7   -1356.1883187663      1.59e-06  
    8   -1356.1883188894      1.01e-06  
    9   -1356.1883189565      4.33e-07  
   10   -1356.1883189706      1.29e-07  
   11   -1356.1883189715      6.90e-08  
   12   -1356.1883189719      1.35e-08  
   13   -1356.1883189719      8.90e-09  Convergence criterion met
 ---------------------------------------
 SCF time:   CPU 667.01s  wall 56.00s 
 SCF   energy in the final basis set =    -1356.1883189719
 Total energy in the final basis set =    -1356.1883189719
 
[...]
 -----------------------------------------------------------------
 Calculating analytic gradient of the SCF energy
 Gradient of SCF Energy
            1           2           3           4           5           6
    1   0.0000157   0.0000085  -0.0000053  -0.0000285  -0.0000721   0.0000418
    2   0.0000030  -0.0000124   0.0000050  -0.0000130  -0.0000754   0.0000794
    3   0.0000072  -0.0000005   0.0000316  -0.0000288   0.0000777  -0.0000335
            7           8           9          10          11          12
    1   0.0000037   0.0000063  -0.0000153   0.0000092  -0.0000258   0.0000497
    2   0.0000047  -0.0000038  -0.0000141   0.0000241  -0.0000173  -0.0000299
    3  -0.0000018   0.0000016   0.0000266   0.0000011  -0.0000002  -0.0000290
           13          14          15          16          17          18
    1   0.0000038   0.0000071   0.0000021  -0.0000325   0.0000050   0.0000368
    2   0.0000012   0.0000015   0.0000183   0.0000103   0.0000098  -0.0000188
    3   0.0000007  -0.0000101  -0.0000062  -0.0000017  -0.0000061  -0.0000077
           19          20          21          22          23          24
    1  -0.0000066  -0.0000090   0.0000152   0.0000060  -0.0000010  -0.0000000
    2  -0.0000018   0.0000100   0.0000016   0.0000156  -0.0000085  -0.0000083
    3  -0.0000113  -0.0000004  -0.0000246  -0.0000013  -0.0000108   0.0000007
           25          26          27          28          29          30
    1  -0.0000158   0.0000022   0.0000087   0.0000054  -0.0000186  -0.0000000
    2   0.0000141   0.0000007   0.0000023  -0.0000008   0.0000024   0.0000155
    3   0.0000064  -0.0000035  -0.0000120  -0.0000100  -0.0000155  -0.0000004
           31          32          33          34          35          36
    1  -0.0000053   0.0000056  -0.0000330   0.0000214  -0.0000223   0.0000362
    2   0.0000172   0.0000193  -0.0000206   0.0000102  -0.0000210   0.0000088
    3  -0.0000026  -0.0000030   0.0000092   0.0000097   0.0000038   0.0000089
           37          38          39          40          41          42
    1   0.0000016   0.0000000  -0.0000000  -0.0000396   0.0000429  -0.0000272
    2   0.0000033   0.0000014   0.0000011  -0.0000141   0.0000255  -0.0000013
    3   0.0000032  -0.0000047  -0.0000053  -0.0000143  -0.0000036   0.0000184
           43          44          45          46          47          48
    1   0.0000020  -0.0000027  -0.0000017  -0.0000145   0.0000080   0.0000013
    2   0.0000023   0.0000028  -0.0000039  -0.0000107  -0.0000007  -0.0000017
    3   0.0000012   0.0000082   0.0000073  -0.0000058   0.0000015   0.0000036
           49          50          51          52          53          54
    1  -0.0000056   0.0000003   0.0000018   0.0000003  -0.0000001  -0.0000063
    2   0.0000033  -0.0000047  -0.0000020  -0.0000051  -0.0000050  -0.0000003
    3   0.0000083   0.0000042   0.0000010   0.0000053   0.0000050  -0.0000040
           55          56          57          58          59          60
    1   0.0000045   0.0000227  -0.0000104  -0.0000031  -0.0000024  -0.0000040
    2  -0.0000003   0.0000036   0.0000028  -0.0000109  -0.0000008   0.0000167
    3   0.0000054  -0.0000090   0.0000019   0.0000157   0.0000128   0.0000072
           61          62          63          64          65          66
    1  -0.0000026  -0.0000001  -0.0000018   0.0000053  -0.0000035   0.0000050
    2  -0.0000021  -0.0000110  -0.0000018  -0.0000221  -0.0000085   0.0000026
    3   0.0000006   0.0000076   0.0000079  -0.0000081   0.0000047   0.0000089
           67          68          69          70          71          72
    1   0.0000103   0.0000034   0.0000007  -0.0000004   0.0000009  -0.0000242
    2   0.0000063  -0.0000031  -0.0000015  -0.0000057   0.0000006  -0.0001220
    3  -0.0000152   0.0000090  -0.0000031  -0.0000050  -0.0000048  -0.0000089
           73          74          75
    1   0.0000313   0.0000125  -0.0000039
    2   0.0001306  -0.0000037   0.0000110
    3  -0.0000150  -0.0000049  -0.0000012
 Max gradient component =       1.306E-04
 RMS gradient           =       2.034E-05
 Gradient time:  CPU 86.92 s  wall 8.38 s
 Geometry Optimization Parameters
   NAtoms,    NIC,     NZ,  NCons,   NDum,   NFix, NCnnct, MaxDiis
       75     539       0       0       0       0       0       0

 Cartesian Hessian Update
 Hessian Updated using BFGS Update


** GEOMETRY OPTIMIZATION IN DELOCALIZED INTERNAL COORDINATES **
   Searching for a Minimum

   Optimization Cycle:  17

                       Coordinates (Angstroms)
     ATOM                X               Y               Z
      1  C        -0.5398707620   -1.3559902416   -0.2901809797
      2  C        -1.6875647338   -2.0942473109   -0.4702792421
      3  C        -3.0107152033   -1.5449773450   -0.2789920608
      4  C        -4.2120538252   -2.1857936374   -0.4181372623
      5  C        -5.5418869958   -1.5080659583   -0.1582093923
      6  C        -5.6390861021   -0.1187925665    0.5177157595
      7  H        -1.6003396051   -3.1447778714   -0.7587167995
      8  H        -3.0263588931   -0.4888104707    0.0123783635
      9  C        -6.6547746900    0.8968497519   -0.0414049139
     10  C        -6.5417751731    1.3092608570   -1.3341765223
     11  C        -7.4961055120    2.3163200973   -1.9726251767
     12  C        -8.7652208367    2.5810297961   -1.1450070283
     13  H        -7.7589189480    1.9649286857   -2.9884436159
     14  H        -6.9466107532    3.2668802926   -2.1314320429
     15  C        -8.3760128355    2.7494822887    0.3320749378
     16  H        -9.4694265312    1.7393475096   -1.2601062454
     17  H        -9.2845485110    3.4793078908   -1.5194167151
     18  C        -7.7153940149    1.4716771166    0.9382532631
     19  H        -9.2537186354    3.0158688167    0.9465195742
     20  H        -7.6671091490    3.5947789863    0.4138830515
     21  C        -5.4473517215    0.8611086291   -2.2940498689
     22  H        -4.6604592217    0.2423206648   -1.8446730878
     23  H        -4.9539332427    1.7461203858   -2.7354846027
     24  H        -5.8714788016    0.2958842373   -3.1444493602
     25  C        -8.8207004386    0.4074554514    1.2304935322
     26  H        -9.3771900515    0.1491896942    0.3158513016
     27  H        -9.5425928617    0.8049385391    1.9645666244
     28  H        -8.3864329349   -0.5144235092    1.6357738476
     29  C        -7.0452215773    1.9017123819    2.2809508256
     30  H        -6.2241729953    2.6161911298    2.1026729909
     31  H        -6.6503256314    1.0453220646    2.8446566955
     32  H        -7.7893731340    2.4057785711    2.9204929259
     33  C         0.8209853225   -1.8208596899   -0.4379213500
     34  C         1.8564544229   -0.9241852697   -0.1981996782
     35  C         3.2633024117   -1.1589670571   -0.2691330076
     36  C         4.2210982848   -0.1917987089   -0.0063595422
     37  H         3.6185174179   -2.1581520817   -0.5431333012
     38  H         1.5622026570    0.0942531091    0.0866497162
     39  H        -0.6570478804   -0.3043250589    0.0024524181
     40  C         5.6272972553   -0.4242862412   -0.0671025816
     41  C         6.6373089503    0.5033454333    0.1774998356
     42  C         8.0061858880    0.0663424644    0.0689323958
     43  C         9.1588522407    0.8046546206    0.2560734339
     44  H         9.0759151305    1.8633049379    0.5142311052
     45  H         8.1379093682   -0.9910140819   -0.1960023714
     46  C        10.4730235653    0.2438532060    0.1247690721
     47  C        11.6943049741    0.8747085213    0.2790716838
     48  H        10.5048472561   -0.8234603775   -0.1301358015
     49  C        12.9096508826    0.0859636971    0.0918178194
     50  C        14.1881019529    0.5281718704    0.2019951818
     51  H        14.4318222949    1.5624712433    0.4534934961
     52  H        12.7486276930   -0.9688997304   -0.1634663135
     53  H        15.0325031896   -0.1449301376    0.0418862620
     54  H         3.8707771737    0.8102078693    0.2652641846
     55  H         5.9388342564   -1.4415681159   -0.3352375328
     56  C        -4.3742605479   -3.6436338236   -0.8056524825
     57  H        -3.4175312133   -4.1610909811   -0.9513953127
     58  H        -4.9601645007   -3.7406417424   -1.7382290658
     59  H        -4.9352692292   -4.1817514885   -0.0219828707
     60  C         1.0574669668   -3.2669170163   -0.8430057055
     61  H         2.1226014502   -3.5131617848   -0.9327781424
     62  H         0.5817274811   -3.4860091427   -1.8142524423
     63  H         0.6154191914   -3.9601416566   -0.1069627494
     64  C         6.2929833377    1.9404864450    0.5515898776
     65  H         5.7059388180    2.4287459362   -0.2439323091
     66  H         5.6858539436    1.9776235259    1.4713378882
     67  H         7.1852849422    2.5545209639    0.7252011075
     68  C        11.8410204383    2.3438470181    0.6297751774
     69  H        10.8764743155    2.8480707444    0.7702341623
     70  H        12.3889800157    2.8836573318   -0.1621060972
     71  H        12.4238579064    2.4683175720    1.5586224288
     72  O        -6.0463884803   -0.7918349744    1.7754862261
     73  O        -6.1999626707   -2.1169698668    1.0414352445
     74  H        -6.2184225483   -1.6358235559   -1.0215213679
     75  H        -4.6688636089    0.3742106111    0.7001757379
   Point Group: c1    Number of degrees of freedom:   219


   Energy is  -1356.191282634

 Hessian Updated using BFGS Update

201 Hessian modes will be used to form the next step
  Hessian Eigenvalues:
     0.001048    0.001670    0.002741    0.002942    0.005681    0.006616
     0.006960    0.007015    0.007744    0.008459    0.008558    0.009332
     0.009845    0.010034    0.010370    0.010693    0.010821    0.010991
     0.012220    0.013017    0.013532    0.013834    0.015010    0.019043
     0.019463    0.019515    0.019581    0.019713    0.019762    0.019953
     0.020019    0.020061    0.020262    0.020377    0.024601    0.027632
     0.027951    0.028200    0.028979    0.029452    0.029657    0.030288
     0.030430    0.030439    0.032553    0.034481    0.036377    0.038914
     0.045431    0.047675    0.050267    0.051151    0.051969    0.052890
     0.053988    0.054625    0.055517    0.057972    0.060755    0.066098
     0.067242    0.067991    0.068095    0.068731    0.068761    0.070521
     0.073856    0.074279    0.074338    0.074636    0.074907    0.077250
     0.079035    0.081589    0.082962    0.089831    0.095469    0.099450
     0.100994    0.120661    0.126175    0.134472    0.152550    0.155292
     0.159233    0.159399    0.159807    0.159873    0.159919    0.159988
     0.160054    0.160078    0.160108    0.160314    0.160635    0.160731
     0.161079    0.161228    0.162411    0.163319    0.166602    0.190954
     0.205058    0.214345    0.219826    0.219939    0.219999    0.220027
     0.220061    0.220232    0.220568    0.220765    0.222264    0.227278
     0.230557    0.241321    0.249625    0.249935    0.249949    0.250084
     0.250448    0.251164    0.257702    0.259054    0.262074    0.268139
     0.273605    0.277019    0.278313    0.290138    0.291710    0.297434
     0.302893    0.304939    0.305732    0.306526    0.306836    0.309190
     0.312256    0.317431    0.321290    0.322982    0.323345    0.323877
     0.323938    0.324078    0.324494    0.324541    0.324864    0.325395
     0.325560    0.325592    0.325689    0.325794    0.325810    0.325817
     0.325830    0.325849    0.326335    0.326563    0.327608    0.328498
     0.328864    0.331845    0.332232    0.333412    0.334701    0.334857
     0.335001    0.335499    0.335733    0.336426    0.337224    0.337920
     0.341671    0.350065    0.350130    0.350215    0.350304    0.350410
     0.351377    0.353249    0.353729    0.355282    0.358568    0.362596
     0.363453    0.369791    0.382906    0.398798    0.431005    0.480719
     0.512293    0.527531    0.535252    0.536873    0.543946    0.556717
     0.557864    0.568360    0.575806

 Minimum Search - Taking Simple RFO Step
 Searching for Lamda that Minimizes Along All modes
 Value Taken    Lamda =   0.00000000
 Step Taken.  Stepsize is  0.019031

                             Maximum     Tolerance    Cnvgd?
         Gradient           0.000086      0.000300     YES
         Displacement       0.007602      0.001200      NO
         Energy change     -0.000001      0.000001      NO


 New Cartesian Coordinates Obtained by Inverse Iteration

 Displacement from previous Coordinates is:  0.063761
 ----------------------------------------------------------------
             Standard Nuclear Orientation (Angstroms)
    I     Atom           X                Y                Z
 ----------------------------------------------------------------
    1      C      -0.5390643987    -1.3541164880    -0.2896327457
    2      C      -1.6868064161    -2.0922294022    -0.4701118084
    3      C      -3.0100045698    -1.5428055488    -0.2798161877
    4      C      -4.2112259664    -2.1837022314    -0.4196062251
    5      C      -5.5413248317    -1.5064372701    -0.1599840996
    6      C      -5.6393842510    -0.1175772160     0.5165382817
    7      H      -1.5995382770    -3.1429153990    -0.7579794117
    8      H      -3.0258638010    -0.4865974135     0.0113846135
    9      C      -6.6565417796     0.8971169519    -0.0417957450
   10      C      -6.5436538608     1.3106188410    -1.3342342670
   11      C      -7.4990433567     2.3170676179    -1.9720940828
   12      C      -8.7692016167     2.5780479539    -1.1447779567
   13      H      -7.7605505091     1.9667240532    -2.9886153484
   14      H      -6.9512064145     3.2688885681    -2.1289787137
   15      C      -8.3804677985     2.7469078112     0.3324034406
   16      H      -9.4704808415     1.7340350200    -1.2604163416
   17      H      -9.2911657034     3.4748344892    -1.5190452841
   18      C      -7.7179172571     1.4699329017     0.9381633002
   19      H      -9.2584904750     3.0120342208     0.9469434480
   20      H      -7.6727364373     3.5932027043     0.4141774660
   21      C      -5.4481547067     0.8646879242    -2.2938548554
   22      H      -4.6627622852     0.2432247694    -1.8455357614
   23      H      -4.9529202823     1.7507994711    -2.7310926075
   24      H      -5.8715153689     0.3032168580    -3.1471000706
   25      C      -8.8215612070     0.4040110749     1.2303499402
   26      H      -9.3781692578     0.1455767276     0.3158442650
   27      H      -9.5436725593     0.8000280345     1.9650347924
   28      H      -8.3858276359    -0.5174957871     1.6349195888
   29      C      -7.0479152050     1.9002925679     2.2808928460
   30      H      -6.2277249472     2.6157188581     2.1025630918
   31      H      -6.6519151356     1.0440791846     2.8440880258
   32      H      -7.7925543835     2.4032574615     2.9207113021
   33      C       0.8217544985    -1.8194811229    -0.4361818184
   34      C       1.8573763700    -0.9229359866    -0.1966285920
   35      C       3.2641662484    -1.1583001426    -0.2666259146
   36      C       4.2222372915    -0.1912079476    -0.0045735865
   37      H       3.6191303500    -2.1579186340    -0.5393745251
   38      H       1.5633131554     0.0958444282     0.0871888240
   39      H      -0.6561717318    -0.3022677252     0.0023633795
   40      C       5.6283614187    -0.4243564799    -0.0645386699
   41      C       6.6386656320     0.5032772557     0.1788285403
   42      C       8.0074094825     0.0656300821     0.0709055462
   43      C       9.1603740138     0.8039816578     0.2561255687
   44      H       9.0778474811     1.8632776379     0.5117302781
   45      H       8.1387636512    -0.9923228439    -0.1918201141
   46      C      10.4743195017     0.2424135987     0.1258439990
   47      C      11.6958795513     0.8731720044     0.2783322372
   48      H      10.5056850821    -0.8255145516    -0.1265362086
   49      C      12.9108724479     0.0835209669     0.0926284761
   50      C      14.1895112723     0.5255292253     0.2014234197
   51      H      14.4336586323     1.5603373468     0.4503979161
   52      H      12.7493928462    -0.9718840219    -0.1601100735
   53      H      15.0336338519    -0.1482484834     0.0426958302
   54      H       3.8722460446     0.8112880761     0.2656455544
   55      H       5.9395634146    -1.4421379928    -0.3311604336
   56      C      -4.3730816918    -3.6414384084    -0.8076099181
   57      H      -3.4161803565    -4.1595705415    -0.9498802872
   58      H      -4.9556770485    -3.7380866505    -1.7423160003
   59      H      -4.9372027214    -4.1791556534    -0.0259125196
   60      C       1.0580661781    -3.2659655868    -0.8398789632
   61      H       2.1231942973    -3.5127583337    -0.9281849627
   62      H       0.5833684476    -3.4855625794    -1.8115249550
   63      H       0.6148367532    -3.9584256239    -0.1038311722
   64      C       6.2947695831     1.9411900639     0.5504146745
   65      H       5.7113527013     2.4295800212    -0.2477271638
   66      H       5.6842399768     1.9798868546     1.4678189971
   67      H       7.1871923671     2.5541936946     0.7269791580
   68      C      11.8432276646     2.3430825563     0.6255269930
   69      H      10.8788956327     2.8480538156     0.7647489378
   70      H      12.3914806754     2.8807839082    -0.1675832904
   71      H      12.4260601054     2.4695015575     1.5541200801
   72      O      -6.0450250441    -0.7912820935     1.7743621753
   73      O      -6.1993129780    -2.1160766614     1.0395580782
   74      H      -6.2177531492    -1.6343279549    -1.0233589960
   75      H      -4.6695839700     0.3764634239     0.6983598174
 ----------------------------------------------------------------
 Molecular Point Group                 C1    NOp =  1
 Largest Abelian Subgroup              C1    NOp =  1
 Nuclear Repulsion Energy =  2868.9458021356 hartrees
 There are      122 alpha and      122 beta electrons
 Applying Cartesian multipole field
    Component          Value
    ---------          -----
     (2,0,0)        1.00000E-12
     (0,2,0)        2.00000E-11
     (0,0,2)       -3.00000E-11
 Nucleus-field energy     =     0.0000000749 hartrees
 Requested basis set is 6-31G(d,p)
 There are 258 shells and 705 basis functions
 A cutoff of  1.0D-11 yielded  10967 shell pairs
 There are     83892 function pairs
 Smallest overlap matrix eigenvalue = 9.50E-04
 Guess MOs from SCF MO coefficient file

 -----------------------------------------------------------------------
  General SCF calculation program by
  Eric Jon Sundstrom, Paul Horn, Yuezhi Mao, Dmitri Zuev, Alec White,
  David Stuck, Shaama M.S., Shane Yost, Joonho Lee, David Small,
  Daniel Levine, Susi Lehtola, Hugh Burton, Evgeny Epifanovsky
 -----------------------------------------------------------------------
 Exchange:  B88      Correlation:  LYP
 Using SG-1 standard quadrature grid
 using 12 threads for integral computing
 -------------------------------------------------------
 OpenMP Integral computing Module                
 Release: version 1.0, May 2013, Q-Chem Inc. Pittsburgh 
 -------------------------------------------------------
 -------------------------------------------------------
 OpenMP BLAS3 based DFT computing Module                
 Release: version 1.0, May 2013, Q-Chem Inc. Pittsburgh 
 -------------------------------------------------------
 A restricted SCF calculation will be
 performed using DIIS
 SCF converges when DIIS error is below 1.0e-08
 ---------------------------------------
  Cycle       Energy         DIIS error
 ---------------------------------------
    1   -1356.1912539253      1.48e-05  
    2   -1356.1912832433      8.32e-07  
    3   -1356.1912832245      1.02e-06  
    4   -1356.1912832397      8.46e-07  
    5   -1356.1912832813      2.95e-07  
