
Running Job 1 of 1 car_2_2_opt_631g_gga.in
qchem car_2_2_opt_631g_gga.in_15419.0 /scr/c295_lal/137029/qchem15419/ 1
/usr/software/qchem_511/exe/qcprog.exe_s car_2_2_opt_631g_gga.in_15419.0 /scr/c295_lal/137029/qchem15419/
Check license passed

                  Welcome to Q-Chem
     A Quantum Leap Into The Future Of Chemistry


 Q-Chem 5.1, Q-Chem, Inc., Pleasanton, CA (2018)

 Yihan Shao,  Zhengting Gan,  E. Epifanovsky,  A. T. B. Gilbert,  M. Wormit,  
 J. Kussmann,  A. W. Lange,  A. Behn,  Jia Deng,  Xintian Feng,  D. Ghosh,  
 M. Goldey,  P. R. Horn,  L. D. Jacobson,  I. Kaliman,  T. Kus,  A. Landau,  
 Jie Liu,  E. I. Proynov,  R. M. Richard,  R. P. Steele,  E. J. Sundstrom,  
 H. L. Woodcock III,  P. M. Zimmerman,  D. Zuev,  B. Albrecht,  E. Alguire,  
 S. A. Baeppler,  D. Barton,  Z. Benda,  Y. A. Bernard,  E. J. Berquist,  
 K. B. Bravaya,  H. Burton,  D. Casanova,  Chun-Min Chang,  Yunqing Chen,  
 A. Chien,  K. D. Closser,  M. P. Coons,  S. Coriani,  S. Dasgupta,  
 A. L. Dempwolff,  M. Diedenhofen,  Hainam Do,  R. G. Edgar,  Po-Tung Fang,  
 S. Faraji,  S. Fatehi,  Qingguo Feng,  K. D. Fenk,  J. Fosso-Tande,  
 Qinghui Ge,  A. Ghysels,  G. Gidofalvi,  J. Gomes,  J. Gonthier,  A. Gunina,  
 D. Hait,  M. W. D. Hanson-Heine,  P. H. P. Harbach,  A. W. Hauser,  
 J. E. Herr,  E. G. Hohenstein,  Z. C. Holden,  Kerwin Hui,  B. C. Huynh,  
 T.-C. Jagau,  Hyunjun Ji,  B. Kaduk,  K. Khistyaev,  Jaehoon Kim,  
 P. Klunzinger,  K. Koh,  D. Kosenkov,  L. Koulias,  T. Kowalczyk,  
 C. M. Krauter,  A. Kunitsa,  Ka Un Lao,  A. Laurent,  K. V. Lawler,  
 Joonho Lee,  D. Lefrancois,  S. Lehtola,  D. S. Levine,  Yi-Pei Li,  
 You-Sheng Lin,  Fenglai Liu,  E. Livshits,  A. Luenser,  P. Manohar,  
 E. Mansoor,  S. F. Manzer,  Shan-Ping Mao,  Yuezhi Mao,  N. Mardirossian,  
 A. V. Marenich,  T. Markovich,  L. A. Martinez-Martinez,  S. A. Maurer,  
 N. J. Mayhall,  S. C. McKenzie,  J.-M. Mewes,  A. F. Morrison,  
 J. W. Mullinax,  K. Nanda,  T. S. Nguyen-Beck,  R. Olivares-Amaya,  
 J. A. Parkhill,  T. M. Perrine,  F. Plasser,  P. Pokhilko,  S. Prager,  
 A. Prociuk,  E. Ramos,  D. R. Rehn,  F. Rob,  M. Schneider,  N. Sergueev,  
 S. M. Sharada,  S. Sharma,  D. W. Small,  T. Stauch,  T. Stein,  
 Yu-Chuan Su,  A. J. W. Thom,  A. Tkatchenko,  T. Tsuchimochi,  N. M. Tubman,  
 L. Vogt,  M. L. Vidal,  O. Vydrov,  M. A. Watson,  J. Wenzel,  
 M. de Wergifosse,  T. A. Wesolowski,  A. White,  J. Witte,  A. Yamada,  
 Jun Yang,  K. Yao,  S. Yeganeh,  S. R. Yost,  Zhi-Qiang You,  A. Zech,  
 Igor Ying Zhang,  Xing Zhang,  Yan Zhao,  Ying Zhu,  B. R. Brooks,  
 G. K. L. Chan,  C. J. Cramer,  M. S. Gordon,  W. J. Hehre,  A. Klamt,  
 M. W. Schmidt,  C. D. Sherrill,  D. G. Truhlar,  A. Aspuru-Guzik,  R. Baer,  
 A. T. Bell,  N. A. Besley,  Jeng-Da Chai,  A. E. DePrince, III,  
 R. A. DiStasio Jr.,  A. Dreuw,  B. D. Dunietz,  T. R. Furlani,  
 Chao-Ping Hsu,  Yousung Jung,  Jing Kong,  D. S. Lambrecht,  WanZhen Liang,  
 C. Ochsenfeld,  V. A. Rassolov,  L. V. Slipchenko,  J. E. Subotnik,  
 T. Van Voorhis,  J. M. Herbert,  A. I. Krylov,  P. M. W. Gill,  M. Head-Gordon

 Contributors to earlier versions of Q-Chem not listed above: 
 R. D. Adamson,  B. Austin,  J. Baker,  G. J. O. Beran,  K. Brandhorst,  
 S. T. Brown,  E. F. C. Byrd,  A. K. Chakraborty,  C.-L. Cheng,  
 Siu Hung Chien,  D. M. Chipman,  D. L. Crittenden,  H. Dachsel,  
 R. J. Doerksen,  A. D. Dutoi,  L. Fusti-Molnar,  W. A. Goddard III,  
 A. Golubeva-Zadorozhnaya,  S. R. Gwaltney,  G. Hawkins,  A. Heyden,  
 S. Hirata,  G. Kedziora,  F. J. Keil,  C. Kelley,  Jihan Kim,  R. A. King,  
 R. Z. Khaliullin,  P. P. Korambath,  W. Kurlancheek,  A. M. Lee,  M. S. Lee,  
 S. V. Levchenko,  Ching Yeh Lin,  D. Liotard,  R. C. Lochan,  I. Lotan,  
 P. E. Maslen,  N. Nair,  D. P. O'Neill,  D. Neuhauser,  E. Neuscamman,  
 C. M. Oana,  R. Olson,  B. Peters,  R. Peverati,  P. A. Pieniazek,  
 Y. M. Rhee,  J. Ritchie,  M. A. Rohrdanz,  E. Rosta,  N. J. Russ,  
 H. F. Schaefer III,  N. E. Schultz,  N. Shenvi,  A. C. Simmonett,  A. Sodt,  
 D. Stuck,  K. S. Thanthiriwatte,  V. Vanovschi,  Tao Wang,  A. Warshel,  
 C. F. Williams,  Q. Wu,  X. Xu,  W. Zhang

 Please cite Q-Chem as follows:
 Y. Shao et al., Mol. Phys. 113, 184-215 (2015)
 DOI: 10.1080/00268976.2014.952696

 Q-Chem 5.1.1 for Intel X86 EM64T Linux

 Parts of Q-Chem use Armadillo 8.300.2 (Tropical Shenanigans).
 http://arma.sourceforge.net/

 Q-Chem begins on Wed Oct 31 00:20:21 2018  

Host: cub-0-30.local
0

     Scratch files written to /scr/c295_lal/137029/qchem15419//
 Aug318 |scratch|qcdevops|jenkins|workspace|build_RNUM -1
Processing $rem in /usr/software/qchem_511/config/preferences.
 MEM_TOTAL  2000 
Input Ideriv = 2
Curr. Ideriv = -1
Max.  Ideriv = 2

Checking the input file for inconsistencies... 	...done.

--------------------------------------------------------------
User input:
--------------------------------------------------------------
$molecule
0 1
C          0.43184        2.07369       -0.81059
C         -0.00143        1.27130        0.17085
C          0.94723        0.47217        0.97444
C          0.51586       -0.31817        1.96673
C          1.46532       -1.11614        2.77340
C          1.02651       -1.91556        3.76236
H         -1.06590        1.20563        0.38444
H          2.01084        0.53213        0.75501
H          2.51444       -1.06753        2.51097
C          1.87811       -2.81479        4.62496
H         -0.04934       -1.98022        3.88490
C          3.16734       -2.51566        5.02682
C          3.98433       -3.46467        5.89087
C          3.14726       -4.49741        6.63657
H          4.54922       -2.90623        6.66910
H          4.72871       -3.95861        5.22899
C          2.21507       -5.16045        5.64826
H          2.56586       -4.01733        7.44991
H          3.82606       -5.24383        7.10291
C          1.19707       -4.14065        5.06220
H          1.67756       -6.01095        6.12294
H          2.85239       -5.58509        4.83858
C          3.89580       -1.21522        4.74677
H          3.28660       -0.40322        4.32524
H          4.78550       -1.40668        4.11102
H          4.24169       -0.78570        5.71063
C          0.09728       -3.82190        6.10444
H          0.51222       -3.29842        6.98932
H         -0.39579       -4.75565        6.45090
H         -0.69410       -3.17123        5.68019
C          0.53730       -4.84855        3.85260
H          1.29458       -5.07346        3.07063
H         -0.25908       -4.23025        3.38967
H          0.06468       -5.80467        4.16710
C         -0.51618        2.87475       -1.61296
C         -0.08158        3.68592       -2.58646
C         -1.02940        4.48754       -3.38745
C         -0.60015        5.30155       -4.35463
H         -2.09635        4.41984       -3.19237
H          0.98370        3.76010       -2.79324
H         -1.31330        5.88189       -4.93113
H          0.45780        5.39818       -4.58027
H          1.49658        2.14159       -1.02217
C         -0.78125       -0.40325        2.42181
H         -1.41700        0.19232        1.80050
H         -0.83006       -0.04540        3.42902
H         -1.10444       -1.42276        2.38947
C         -2.09591        2.81963       -1.09598
H         -2.70190        3.42670       -1.73561
H         -2.15602        3.18767       -0.09307
H         -2.44616        1.80904       -1.12663
$end

$rem
BASIS = 6-31G
METHOD  = BLYP
JOBTYPE = OPT
$end
--------------------------------------------------------------
 ----------------------------------------------------------------
             Standard Nuclear Orientation (Angstroms)
    I     Atom           X                Y                Z
 ----------------------------------------------------------------
    1      C       4.1133135528    -0.5622033947    -0.2618184711
    2      C       3.0048384847     0.1319677186     0.0283307446
    3      C       1.6644754386    -0.4604302757    -0.1635362968
    4      C       0.5559199024     0.2275276442     0.1417100960
    5      C      -0.7860367205    -0.3660486400    -0.0474102846
    6      C      -1.8963664202     0.3321676625     0.2514716104
    7      H       3.0878141875     1.1458916835     0.4131720678
    8      H       1.5820167247    -1.4714455465    -0.5560406168
    9      H      -0.8421642814    -1.3592978529    -0.4742485554
   10      C      -3.3194286258    -0.1334253341     0.0616479202
   11      H      -1.7459940222     1.3565775425     0.5749259801
   12      C      -3.7365694962    -1.4438000765     0.2099575221
   13      C      -5.1847642362    -1.8589599597    -0.0022907034
   14      C      -6.1764949538    -0.7039912017     0.0740240029
   15      H      -5.5051301026    -2.5914086307     0.7706792407
   16      H      -5.2427715714    -2.3687612433    -0.9886482668
   17      C      -5.6832185007     0.4091590494    -0.8220405891
   18      H      -6.2760812434    -0.3412112095     1.1173350640
   19      H      -7.1755684943    -1.0636004057    -0.2544855600
   20      C      -4.3304977206     0.9846183773    -0.3133408578
   21      H      -6.4416929448     1.2194312828    -0.8979601379
   22      H      -5.5638455649    -0.0259711740    -1.8411035927
   23      C      -2.8648047402    -2.5971184515     0.6683341181
   24      H      -1.8715742783    -2.3264232309     1.0535269635
   25      H      -2.7777076298    -3.3530043932    -0.1400294267
   26      H      -3.3440729749    -3.0791112464     1.5464789393
   27      C      -4.5631479485     1.8881826414     0.9223165851
   28      H      -4.9425435491     1.3077556929     1.7874077157
   29      H      -5.2987015484     2.6879699360     0.6892011539
   30      H      -3.6280028302     2.3874946339     1.2476363628
   31      C      -3.7827510597     1.8613584307    -1.4669662290
   32      H      -3.5811172773     1.2413699656    -2.3672399143
   33      H      -2.8407393981     2.3772921328    -1.1890334606
   34      H      -4.5161003732     2.6504037263    -1.7427409099
   35      C       5.4539392684     0.0288886169    -0.0679897177
   36      C       6.5623457581    -0.6697591025    -0.3471000841
   37      C       7.9023253539    -0.0790623406    -0.1519735221
   38      C       9.0095819559    -0.7737905386    -0.4233414334
   39      H       7.9975594087     0.9379670054     0.2189760475
   40      H       6.4800483579    -1.6875736094    -0.7217504364
   41      H       9.9843003334    -0.3210670484    -0.2726921252
   42      H       8.9573233278    -1.7929517627    -0.7949439148
   43      H       4.0303426859    -1.5772012468    -0.6438432995
   44      C       0.5172210643     1.4643266965     0.7464094173
   45      H       1.5133650290     1.8395819951     0.8549841190
   46      H       0.0623651614     1.3757281456     1.7108612963
   47      H      -0.0541256689     2.1385594260     0.1431918540
   48      C       5.4651479251     1.5175131586     0.6734445327
   49      H       6.4740466549     1.8609182065     0.7687373859
   50      H       5.0230115073     1.4357097286     1.6443815588
   51      H       4.9055706836     2.2136534131     0.0842343072
 ----------------------------------------------------------------
 Molecular Point Group                 C1    NOp =  1
 Largest Abelian Subgroup              C1    NOp =  1
 Nuclear Repulsion Energy =  1524.1068058859 hartrees
 There are       78 alpha and       78 beta electrons
 Requested basis set is 6-31G
 There are 123 shells and 249 basis functions

 Total QAlloc Memory Limit   2000 MB
 Mega-Array Size       188 MB
 MEM_STATIC part       192 MB
 A cutoff of  1.0D-11 yielded   4164 shell pairs
 There are     18729 function pairs
 
 -------------------------------------------------------
 OpenMP Integral Computing Module                       
 Release: version 1.0, May 2013, Q-Chem Inc. Pittsburgh 
 -------------------------------------------------------
 Integral Job Info:
 Integral job number is                      11
 Integral operator is                         1
 short-range coefficients                     0
 long-range coefficients              100000000
 Omega coefficients                           0
 if combine SR and LR in K                    0
 Integral screening is                        0
 Integral computing path is                   2
 max size of driver memory is            800000
 size of driver memory is                 45569
 size of scratch memory is              2040132
 max col of scratch BK array                289
 max len of scratch array in speh3           22
 max len of scratch index in speh4            8
 max int batch size is                      520
 min int batch size is                       52
 fixed nKL is                                52
 max L of basis functions is                  1
 order of int derivative is                   0
 number of shells is                        123
 number of basis is                         249
 number of cartesian basis is               249
 number of contracted shell pairs          4164
 number of primitive shell pairs          15444
 maxK2 (contraction) of shell pair           36
 max number of K2 of shell pair               1
 max number of CS2 of shell pair            760
 max number of PS2 of shell pair           2952
 mem total for path MDJ                  568574
 -------------------------------------------------------
 Smallest overlap matrix eigenvalue = 1.44E-03

 Scale SEOQF with 1.000000e-02/1.000000e-01/1.000000e-01

 Standard Electronic Orientation quadrupole field applied
 Nucleus-field energy     =     0.0000000245 hartrees
 Guess from superposition of atomic densities
 Warning:  Energy on first SCF cycle will be non-variational
 SAD guess density has 156.000000 electrons

 -----------------------------------------------------------------------
  General SCF calculation program by
  Eric Jon Sundstrom, Paul Horn, Yuezhi Mao, Dmitri Zuev, Alec White,
  David Stuck, Shaama M.S., Shane Yost, Joonho Lee, David Small,
  Daniel Levine, Susi Lehtola, Hugh Burton, Evgeny Epifanovsky
 -----------------------------------------------------------------------
 Exchange:  B88      Correlation:  LYP
 Using SG-1 standard quadrature grid
 using 4 threads for integral computing
 -------------------------------------------------------
 OpenMP Integral computing Module                
 Release: version 1.0, May 2013, Q-Chem Inc. Pittsburgh 
 -------------------------------------------------------
 -------------------------------------------------------
 OpenMP BLAS3 based DFT computing Module                
 Release: version 1.0, May 2013, Q-Chem Inc. Pittsburgh 
 -------------------------------------------------------
 A restricted SCF calculation will be
 performed using DIIS
 SCF converges when DIIS error is below 1.0e-08
 ---------------------------------------
  Cycle       Energy         DIIS error
 ---------------------------------------
    1    -820.7367390430      5.89e-02  
    2    -816.8946271727      8.46e-03  
    3    -816.4872999641      1.07e-02  
    4    -817.5154352124      1.58e-03  
    5    -817.5294460401      1.01e-03  
    6    -817.5387481234      3.61e-04  
    7    -817.5398978240      7.10e-05  
    8    -817.5399176436      5.17e-05  
    9    -817.5399426175      1.25e-05  
   10    -817.5399439134      4.03e-06  
   11    -817.5399440326      2.11e-06  
   12    -817.5399440731      5.34e-07  
   13    -817.5399440751      2.86e-07  
   14    -817.5399440759      5.76e-08  
   15    -817.5399440759      1.68e-08  
   16    -817.5399440759      8.92e-09  Convergence criterion met
 ---------------------------------------
 SCF time:   CPU 154.18s  wall 39.00s 
 SCF   energy in the final basis set =     -817.5399440759
 Total energy in the final basis set =     -817.5399440759
 
 --------------------------------------------------------------
 
                    Orbital Energies (a.u.)
 --------------------------------------------------------------
 
 Alpha MOs
 -- Occupied --
 -9.929  -9.928  -9.920  -9.917  -9.915  -9.912  -9.912  -9.912
 -9.911  -9.911  -9.911  -9.910  -9.910  -9.906  -9.905  -9.905
 -9.905  -9.904  -9.902  -9.900  -9.892  -0.763  -0.754  -0.734
 -0.701  -0.698  -0.686  -0.660  -0.645  -0.616  -0.614  -0.602
 -0.600  -0.591  -0.547  -0.523  -0.501  -0.491  -0.481  -0.470
 -0.455  -0.442  -0.423  -0.418  -0.404  -0.393  -0.388  -0.386
 -0.384  -0.370  -0.367  -0.364  -0.362  -0.351  -0.346  -0.344
 -0.339  -0.334  -0.331  -0.327  -0.324  -0.319  -0.309  -0.302
 -0.297  -0.294  -0.286  -0.283  -0.282  -0.271  -0.270  -0.263
 -0.253  -0.245  -0.238  -0.209  -0.179  -0.149
 -- Virtual --
 -0.066  -0.025   0.013   0.043   0.058   0.067   0.069   0.073
  0.078   0.090   0.093   0.094   0.099   0.100   0.111   0.113
  0.121   0.125   0.134   0.139   0.143   0.145   0.147   0.153
  0.157   0.162   0.164   0.167   0.169   0.170   0.178   0.182
  0.192   0.194   0.200   0.204   0.210   0.219   0.222   0.227
  0.239   0.244   0.252   0.258   0.261   0.268   0.288   0.312
  0.326   0.334   0.360   0.371   0.391   0.403   0.405   0.441
  0.451   0.474   0.487   0.489   0.492   0.494   0.506   0.517
  0.524   0.530   0.531   0.539   0.540   0.546   0.552   0.560
  0.569   0.572   0.575   0.582   0.589   0.607   0.608   0.612
  0.621   0.625   0.628   0.636   0.640   0.653   0.657   0.659
  0.666   0.683   0.690   0.694   0.699   0.708   0.716   0.719
  0.729   0.738   0.745   0.759   0.765   0.775   0.780   0.790
  0.793   0.805   0.809   0.813   0.817   0.834   0.845   0.849
  0.858   0.864   0.869   0.882   0.887   0.894   0.897   0.906
  0.911   0.912   0.917   0.922   0.928   0.931   0.941   0.945
  0.948   0.954   0.958   0.966   0.967   0.985   0.988   1.004
  1.011   1.036   1.038   1.060   1.062   1.094   1.101   1.116
  1.123   1.146   1.156   1.177   1.181   1.202   1.208   1.218
  1.237   1.254   1.284   1.289   1.302   1.321   1.342   1.359
  1.417   1.439   1.446   1.513   1.533   1.571   1.586   1.627
  1.725   1.742   1.841
 --------------------------------------------------------------
 
          Ground-State Mulliken Net Atomic Charges

     Atom                 Charge (a.u.)
  ----------------------------------------
      1 C                    -0.135467
      2 C                    -0.104015
      3 C                    -0.121454
      4 C                     0.123853
      5 C                    -0.091398
      6 C                    -0.161150
      7 H                     0.107653
      8 H                     0.083441
      9 H                     0.095126
     10 C                     0.108645
     11 H                     0.099365
     12 C                     0.082001
     13 C                    -0.274897
     14 C                    -0.215352
     15 H                     0.109746
     16 H                     0.120226
     17 C                    -0.202726
     18 H                     0.113833
     19 H                     0.098119
     20 C                    -0.002556
     21 H                     0.095432
     22 H                     0.103627
     23 C                    -0.437515
     24 H                     0.137615
     25 H                     0.125794
     26 H                     0.120220
     27 C                    -0.365703
     28 H                     0.120616
     29 H                     0.111851
     30 H                     0.116224
     31 C                    -0.354363
     32 H                     0.116671
     33 H                     0.106777
     34 H                     0.108576
     35 C                     0.130608
     36 C                    -0.159767
     37 C                    -0.029295
     38 C                    -0.283751
     39 H                     0.097139
     40 H                     0.094252
     41 H                     0.098255
     42 H                     0.103990
     43 H                     0.088832
     44 C                    -0.467115
     45 H                     0.117058
     46 H                     0.150900
     47 H                     0.145721
     48 C                    -0.436540
     49 H                     0.126271
     50 H                     0.144261
     51 H                     0.140363
  ----------------------------------------
  Sum of atomic charges =    -0.000000

 -----------------------------------------------------------------
                    Cartesian Multipole Moments
 -----------------------------------------------------------------
    Charge (ESU x 10^10)
                -0.0000
    Dipole Moment (Debye)
         X      -0.9462      Y       0.3352      Z       0.4217
       Tot       1.0888
    Quadrupole Moments (Debye-Ang)
        XX    -130.5611     XY       3.5943     YY    -125.2878
        XZ       1.7360     YZ       3.5301     ZZ    -134.3956
    Octopole Moments (Debye-Ang^2)
       XXX     -38.2445    XXY      13.4788    XYY      11.0476
       YYY      -4.6377    XXZ       7.4821    XYZ      14.3535
       YYZ      -3.0319    XZZ     -15.2145    YZZ      -1.2179
       ZZZ       4.9441
    Hexadecapole Moments (Debye-Ang^3)
      XXXX  -17834.2465   XXXY     176.1339   XXYY   -3109.9469
      XYYY      -3.5523   YYYY   -1470.6916   XXXZ      79.0863
      XXYZ      99.0121   XYYZ     -14.5672   YYYZ       7.9584
      XXZZ   -3193.3403   XYZZ      14.9329   YYZZ    -326.1638
      XZZZ      18.7859   YZZZ       4.8407   ZZZZ    -483.9229
 -----------------------------------------------------------------
 Calculating analytic gradient of the SCF energy
 Gradient of SCF Energy
            1           2           3           4           5           6
    1  -0.0395424   0.0417326  -0.0425271   0.0495147  -0.0254534   0.0409928
    2  -0.0087786   0.0159360  -0.0069200   0.0850175   0.0062312   0.0090767
    3  -0.0010972   0.0039654   0.0007361   0.0304638   0.0073304   0.0044424
            7           8           9          10          11          12
    1   0.0016138  -0.0029745  -0.0008859  -0.0097422   0.0095997  -0.0083768
    2   0.0014113   0.0038452   0.0053590   0.0061387  -0.0028086  -0.0117249
    3   0.0008934   0.0032706   0.0037812  -0.0007472  -0.0029811  -0.0072911
           13          14          15          16          17          18
    1   0.0014709   0.0147386  -0.0071752   0.0044327   0.0055205   0.0008219
    2   0.0087652   0.0039992   0.0038776   0.0013708  -0.0048861   0.0030740
    3  -0.0075997  -0.0004918   0.0041742  -0.0012647   0.0063003   0.0016325
           19          20          21          22          23          24
    1  -0.0014765  -0.0008470  -0.0051936  -0.0019543   0.0000167  -0.0007901
    2  -0.0024148  -0.0050560   0.0005503  -0.0058237   0.0032102  -0.0025767
    3  -0.0030495   0.0069168   0.0007642  -0.0017713  -0.0099431   0.0077284
           25          26          27          28          29          30
    1  -0.0030923   0.0041786   0.0035642  -0.0006080  -0.0021527   0.0025109
    2   0.0008021   0.0046178  -0.0078384  -0.0024186   0.0026292   0.0017748
    3  -0.0042819   0.0050873  -0.0105614   0.0025459  -0.0009624   0.0009839
           31          32          33          34          35          36
    1  -0.0081955   0.0004551   0.0029419  -0.0018789   0.0460238  -0.0368913
    2  -0.0071871  -0.0035777   0.0021002   0.0036622  -0.0352064  -0.0171945
    3   0.0084304  -0.0032156   0.0019946  -0.0006269  -0.0282591  -0.0043650
           37          38          39          40          41          42
    1   0.0218325  -0.0206870   0.0021255  -0.0027171  -0.0072760  -0.0030730
    2   0.0148829   0.0043331  -0.0023395   0.0040269   0.0023461   0.0048146
    3   0.0039334   0.0019203  -0.0004041   0.0036926   0.0010794   0.0018717
           43          44          45          46          47          48
    1  -0.0030405  -0.0221861  -0.0113380   0.0094090   0.0098489  -0.0076848
    2   0.0051720  -0.0691818  -0.0182868  -0.0067828  -0.0230438   0.0534885
    3   0.0029029  -0.0274946  -0.0077063  -0.0221932   0.0065748   0.0326522
           49          50          51
    1  -0.0147420   0.0089040   0.0102529
    2  -0.0077351   0.0034926  -0.0142241
    3  -0.0026280  -0.0188526   0.0117182
 Max gradient component =       8.502E-02
 RMS gradient           =       1.635E-02
 Gradient time:  CPU 22.05 s  wall 6.00 s
 Geometry Optimization Parameters
   NAtoms,    NIC,     NZ,  NCons,   NDum,   NFix, NCnnct, MaxDiis
       51     362       0       0       0       0       0       0


** GEOMETRY OPTIMIZATION IN DELOCALIZED INTERNAL COORDINATES **
   Searching for a Minimum

   Optimization Cycle:   1

                       Coordinates (Angstroms)
     ATOM                X               Y               Z
      1  C         4.1133135528   -0.5622033947   -0.2618184711
      2  C         3.0048384847    0.1319677186    0.0283307446
      3  C         1.6644754386   -0.4604302757   -0.1635362968
      4  C         0.5559199024    0.2275276442    0.1417100960
      5  C        -0.7860367205   -0.3660486400   -0.0474102846
      6  C        -1.8963664202    0.3321676625    0.2514716104
      7  H         3.0878141875    1.1458916835    0.4131720678
      8  H         1.5820167247   -1.4714455465   -0.5560406168
      9  H        -0.8421642814   -1.3592978529   -0.4742485554
     10  C        -3.3194286258   -0.1334253341    0.0616479202
     11  H        -1.7459940222    1.3565775425    0.5749259801
     12  C        -3.7365694962   -1.4438000765    0.2099575221
     13  C        -5.1847642362   -1.8589599597   -0.0022907034
     14  C        -6.1764949538   -0.7039912017    0.0740240029
     15  H        -5.5051301026   -2.5914086307    0.7706792407
     16  H        -5.2427715714   -2.3687612433   -0.9886482668
     17  C        -5.6832185007    0.4091590494   -0.8220405891
     18  H        -6.2760812434   -0.3412112095    1.1173350640
     19  H        -7.1755684943   -1.0636004057   -0.2544855600
     20  C        -4.3304977206    0.9846183773   -0.3133408578
     21  H        -6.4416929448    1.2194312828   -0.8979601379
     22  H        -5.5638455649   -0.0259711740   -1.8411035927
     23  C        -2.8648047402   -2.5971184515    0.6683341181
     24  H        -1.8715742783   -2.3264232309    1.0535269635
     25  H        -2.7777076298   -3.3530043932   -0.1400294267
     26  H        -3.3440729749   -3.0791112464    1.5464789393
     27  C        -4.5631479485    1.8881826414    0.9223165851
     28  H        -4.9425435491    1.3077556929    1.7874077157
     29  H        -5.2987015484    2.6879699360    0.6892011539
     30  H        -3.6280028302    2.3874946339    1.2476363628
     31  C        -3.7827510597    1.8613584307   -1.4669662290
     32  H        -3.5811172773    1.2413699656   -2.3672399143
     33  H        -2.8407393981    2.3772921328   -1.1890334606
     34  H        -4.5161003732    2.6504037263   -1.7427409099
     35  C         5.4539392684    0.0288886169   -0.0679897177
     36  C         6.5623457581   -0.6697591025   -0.3471000841
     37  C         7.9023253539   -0.0790623406   -0.1519735221
     38  C         9.0095819559   -0.7737905386   -0.4233414334
     39  H         7.9975594087    0.9379670054    0.2189760475
     40  H         6.4800483579   -1.6875736094   -0.7217504364
     41  H         9.9843003334   -0.3210670484   -0.2726921252
     42  H         8.9573233278   -1.7929517627   -0.7949439148
     43  H         4.0303426859   -1.5772012468   -0.6438432995
     44  C         0.5172210643    1.4643266965    0.7464094173
     45  H         1.5133650290    1.8395819951    0.8549841190
     46  H         0.0623651614    1.3757281456    1.7108612963
     47  H        -0.0541256689    2.1385594260    0.1431918540
     48  C         5.4651479251    1.5175131586    0.6734445327
     49  H         6.4740466549    1.8609182065    0.7687373859
     50  H         5.0230115073    1.4357097286    1.6443815588
     51  H         4.9055706836    2.2136534131    0.0842343072
   Point Group: c1    Number of degrees of freedom:   147


   Energy is   -817.539944076


 Attempting to Generate Delocalized Internal Coordinates

147 Hessian modes will be used to form the next step
  Hessian Eigenvalues:
     0.002000    0.002691    0.002782    0.004012    0.006976    0.007952
     0.008464    0.010025    0.010667    0.011889    0.012096    0.012100
     0.012176    0.013845    0.014077    0.018876    0.021136    0.021277
     0.021287    0.021290    0.021338    0.021497    0.023744    0.025416
     0.029651    0.030356    0.030384    0.030394    0.031001    0.031001
     0.031006    0.032057    0.045156    0.046773    0.050018    0.052553
     0.053540    0.053654    0.053935    0.054551    0.054995    0.060476
     0.065709    0.068092    0.072222    0.072223    0.075130    0.077264
     0.077995    0.081918    0.085230    0.085231    0.095325    0.097762
     0.120455    0.133184    0.158955    0.159624    0.159897    0.160000
     0.160000    0.160000    0.160000    0.160000    0.160000    0.160000
     0.160000    0.160000    0.160000    0.160000    0.160000    0.160000
     0.160000    0.160000    0.160000    0.160000    0.160000    0.160000
     0.160000    0.160000    0.160000    0.185352    0.199001    0.220000
     0.220000    0.220000    0.220000    0.220000    0.220026    0.220134
     0.227124    0.248278    0.248950    0.249018    0.249442    0.249455
     0.249991    0.264211    0.270450    0.277322    0.277914    0.290668
     0.296795    0.301544    0.306916    0.314233    0.321297    0.323400
     0.323866    0.323938    0.324072    0.324369    0.324439    0.324602
     0.325498    0.325857    0.326611    0.326992    0.327176    0.327379
     0.337750    0.346259    0.348059    0.348092    0.348756    0.350803
     0.350821    0.350831    0.350841    0.351911    0.352729    0.353694
     0.354282    0.356896    0.372295    0.372296    0.372297    0.372302
     0.372304    0.372310    0.469118    0.496075    0.560468    0.572253
     0.572738    0.572907    0.583333

 Minimum Search - Taking Simple RFO Step
 Searching for Lamda that Minimizes Along All modes
 Value Taken    Lamda =  -0.09614806
 Calculated Step too Large.  Step scaled by  0.605919
 Step Taken.  Stepsize is  0.300000

                             Maximum     Tolerance    Cnvgd?
         Gradient           0.068157      0.000300      NO
         Displacement       0.123860      0.001200      NO
         Energy change     *********      0.000001      NO


 New Cartesian Coordinates Obtained by Inverse Iteration

 Displacement from previous Coordinates is:  4.571836
 ----------------------------------------------------------------
             Standard Nuclear Orientation (Angstroms)
    I     Atom           X                Y                Z
 ----------------------------------------------------------------
    1      C       4.1025156366    -0.3689467279    -0.1782208147
    2      C       3.0249010594     0.3913745116     0.1553584264
    3      C       1.6479305895    -0.1019387343    -0.0106241798
    4      C       0.5206474901     0.5981529043     0.3133095943
    5      C      -0.7940690305    -0.0658417328     0.0743125889
    6      C      -2.0071231263     0.4982493027     0.3293762759
    7      H       3.1761249904     1.3897213990     0.5562568964
    8      H       1.5320734465    -1.1045960974    -0.4245670928
    9      H      -0.7458653922    -1.0547602934    -0.3744290475
   10      C      -3.3532768444    -0.1085380228     0.0707218040
   11      H      -2.0140518325     1.5284482899     0.6739236268
   12      C      -3.6412115645    -1.4538744806     0.2004113358
   13      C      -5.0308036708    -2.0189243880    -0.0876620215
   14      C      -6.1439354482    -0.9619735622    -0.0689686540
   15      H      -5.2962642415    -2.7924029971     0.6631801211
   16      H      -4.9920960199    -2.5274348411    -1.0753986598
   17      C      -5.7112189915     0.2156212015    -0.9380576905
   18      H      -6.3335823043    -0.6225080885     0.9677052550
   19      H      -7.0838474452    -1.4135325301    -0.4470477551
   20      C      -4.4467323537     0.9195386612    -0.3562384225
   21      H      -6.5321171123     0.9530608204    -1.0533866756
   22      H      -5.4893068546    -0.1853496187    -1.9508471993
   23      C      -2.6801849166    -2.5180771363     0.7061872690
   24      H      -1.7420710700    -2.1369683352     1.1312119846
   25      H      -2.4629126509    -3.2590725637    -0.0889127243
   26      H      -3.1551480914    -3.0609091691     1.5503068222
   27      C      -4.8370881534     1.7919761136     0.8731285210
   28      H      -5.2081972580     1.1746523916     1.7125348373
   29      H      -5.6292370284     2.5182155286     0.6007909078
   30      H      -3.9751979978     2.3736578351     1.2513695540
   31      C      -3.9149683115     1.8592970808    -1.4789868170
   32      H      -3.6050241714     1.2739835893    -2.3672128790
   33      H      -3.0452898494     2.4582553828    -1.1487520652
   34      H      -4.7023556978     2.5743840060    -1.7925961276
   35      C       5.5051700319     0.0708619974    -0.0330271652
   36      C       6.5229233190    -0.7616245323    -0.3868759253
   37      C       7.9553647090    -0.4278001566    -0.2869057778
   38      C       8.9250615853    -1.2947886480    -0.6499556492
   39      H       8.2444371034     0.5509397225     0.0910353902
   40      H       6.2724797111    -1.7497929881    -0.7760507746
   41      H       9.9757299861    -1.0206137271    -0.5661667470
   42      H       8.6838152494    -2.2855215520    -1.0341009650
   43      H       3.9330778979    -1.3701689070    -0.5790708153
   44      C       0.4879187813     1.8895636254     0.9633259007
   45      H       1.4816057691     2.2970864606     1.0958799092
   46      H       0.0262008208     1.8088436174     1.9430215402
   47      H      -0.0856938723     2.6025053783     0.3783138373
   48      C       5.7204352246     1.4964254934     0.7012205286
   49      H       6.7747126188     1.7304176599     0.7568888046
   50      H       5.3098796605     1.4421241538     1.7034316831
   51      H       5.2107242114     2.2729993002     0.1416674306
 ----------------------------------------------------------------
 Molecular Point Group                 C1    NOp =  1
 Largest Abelian Subgroup              C1    NOp =  1
 Nuclear Repulsion Energy =  1509.0626659971 hartrees
 There are       78 alpha and       78 beta electrons
 Applying Cartesian multipole field
    Component          Value
    ---------          -----
     (2,0,0)        1.00000E-12
     (0,2,0)        2.00000E-11
     (0,0,2)       -3.00000E-11
 Nucleus-field energy     =     0.0000000253 hartrees
 Requested basis set is 6-31G
 There are 123 shells and 249 basis functions
 A cutoff of  1.0D-11 yielded   4104 shell pairs
 There are     18534 function pairs
 Smallest overlap matrix eigenvalue = 1.72E-03
 Guess MOs from SCF MO coefficient file

 -----------------------------------------------------------------------
  General SCF calculation program by
  Eric Jon Sundstrom, Paul Horn, Yuezhi Mao, Dmitri Zuev, Alec White,
  David Stuck, Shaama M.S., Shane Yost, Joonho Lee, David Small,
  Daniel Levine, Susi Lehtola, Hugh Burton, Evgeny Epifanovsky
 -----------------------------------------------------------------------
 Exchange:  B88      Correlation:  LYP
 Using SG-1 standard quadrature grid
 using 4 threads for integral computing
 -------------------------------------------------------
 OpenMP Integral computing Module                
 Release: version 1.0, May 2013, Q-Chem Inc. Pittsburgh 
 -------------------------------------------------------
 -------------------------------------------------------
 OpenMP BLAS3 based DFT computing Module                
 Release: version 1.0, May 2013, Q-Chem Inc. Pittsburgh 
 -------------------------------------------------------
 A restricted SCF calculation will be
 performed using DIIS
 SCF converges when DIIS error is below 1.0e-08
 ---------------------------------------
  Cycle       Energy         DIIS error
 ---------------------------------------
    1    -817.5069303142      2.14e-03  
    2    -817.5787024968      3.16e-04  
    3    -817.5762614411      6.05e-04  
    4    -817.5793948684      1.37e-04  
    5    -817.5795682208      2.46e-05  
    6    -817.5795713201      1.78e-05  
    7    -817.5795742932      4.38e-06  
    8    -817.5795744556      1.28e-06  
    9    -817.5795744686      6.31e-07  
   10    -817.5795744724      1.50e-07  
   11    -817.5795744725      7.74e-08  
   12    -817.5795744726      2.72e-08  
   13    -817.5795744726      7.94e-09  Convergence criterion met
 ---------------------------------------
 SCF time:   CPU 125.35s  wall 32.00s 
 SCF   energy in the final basis set =     -817.5795744726
 Total energy in the final basis set =     -817.5795744726
 
 --------------------------------------------------------------
 
                    Orbital Energies (a.u.)
 --------------------------------------------------------------
 
 Alpha MOs
 -- Occupied --
 -9.932  -9.930  -9.923  -9.921  -9.920  -9.918  -9.916  -9.916
 -9.915  -9.914  -9.913  -9.913  -9.912  -9.911  -9.908  -9.907
 -9.906  -9.906  -9.904  -9.904  -9.900  -0.756  -0.743  -0.729
 -0.697  -0.696  -0.683  -0.659  -0.643  -0.614  -0.611  -0.602
 -0.598  -0.591  -0.549  -0.525  -0.503  -0.491  -0.478  -0.469
 -0.457  -0.438  -0.420  -0.414  -0.403  -0.391  -0.386  -0.383
 -0.373  -0.369  -0.366  -0.364  -0.362  -0.350  -0.346  -0.341
 -0.339  -0.334  -0.331  -0.329  -0.321  -0.318  -0.311  -0.303
 -0.298  -0.295  -0.288  -0.284  -0.282  -0.275  -0.270  -0.263
 -0.254  -0.245  -0.238  -0.209  -0.180  -0.148
 -- Virtual --
 -0.071  -0.028   0.010   0.042   0.058   0.064   0.067   0.075
  0.079   0.088   0.092   0.095   0.100   0.101   0.109   0.113
  0.118   0.125   0.133   0.135   0.142   0.144   0.150   0.154
  0.157   0.160   0.164   0.167   0.168   0.171   0.174   0.183
  0.188   0.195   0.197   0.199   0.203   0.213   0.216   0.223
  0.228   0.240   0.241   0.253   0.254   0.260   0.276   0.307
  0.323   0.337   0.359   0.371   0.385   0.391   0.405   0.422
  0.446   0.477   0.484   0.485   0.489   0.496   0.501   0.508
  0.518   0.525   0.528   0.533   0.536   0.542   0.544   0.556
  0.560   0.570   0.572   0.575   0.583   0.604   0.606   0.612
  0.614   0.620   0.622   0.634   0.636   0.645   0.650   0.657
  0.666   0.667   0.685   0.688   0.690   0.703   0.708   0.714
  0.724   0.729   0.733   0.747   0.752   0.767   0.777   0.780
  0.792   0.801   0.807   0.809   0.813   0.833   0.839   0.847
  0.857   0.865   0.870   0.881   0.887   0.891   0.892   0.900
  0.904   0.912   0.917   0.918   0.928   0.931   0.935   0.940
  0.945   0.949   0.953   0.959   0.967   0.971   0.982   0.983
  0.994   1.027   1.032   1.045   1.058   1.079   1.082   1.100
  1.124   1.134   1.150   1.161   1.169   1.183   1.190   1.207
  1.222   1.245   1.270   1.280   1.297   1.304   1.336   1.348
  1.408   1.425   1.443   1.496   1.526   1.552   1.569   1.600
  1.664   1.733   1.825
 --------------------------------------------------------------
 
          Ground-State Mulliken Net Atomic Charges

     Atom                 Charge (a.u.)
  ----------------------------------------
      1 C                    -0.141313
      2 C                    -0.085574
      3 C                    -0.146525
      4 C                     0.144356
      5 C                    -0.112050
      6 C                    -0.155463
      7 H                     0.098371
      8 H                     0.085767
      9 H                     0.096144
     10 C                     0.102703
     11 H                     0.094569
     12 C                     0.086153
     13 C                    -0.274339
     14 C                    -0.215394
     15 H                     0.109601
     16 H                     0.120453
     17 C                    -0.205189
     18 H                     0.114133
     19 H                     0.098599
     20 C                     0.002855
     21 H                     0.096197
     22 H                     0.104628
     23 C                    -0.439186
     24 H                     0.138668
     25 H                     0.126578
     26 H                     0.120611
     27 C                    -0.367854
     28 H                     0.121418
     29 H                     0.112741
     30 H                     0.116740
     31 C                    -0.356574
     32 H                     0.117739
     33 H                     0.108910
     34 H                     0.108862
     35 C                     0.137336
     36 C                    -0.161567
     37 C                    -0.029091
     38 C                    -0.282876
     39 H                     0.096290
     40 H                     0.091291
     41 H                     0.102575
     42 H                     0.106349
     43 H                     0.088394
     44 C                    -0.462281
     45 H                     0.126823
     46 H                     0.146498
     47 H                     0.141038
     48 C                    -0.438149
     49 H                     0.127451
     50 H                     0.143704
     51 H                     0.138878
  ----------------------------------------
  Sum of atomic charges =    -0.000000

 -----------------------------------------------------------------
                    Cartesian Multipole Moments
 -----------------------------------------------------------------
    Charge (ESU x 10^10)
                -0.0000
    Dipole Moment (Debye)
         X      -0.8633      Y       0.3967      Z       0.4248
       Tot       1.0408
    Quadrupole Moments (Debye-Ang)
        XX    -128.3409     XY       3.8294     YY    -125.1827
        XZ       1.9097     YZ       3.8681     ZZ    -134.4740
    Octopole Moments (Debye-Ang^2)
       XXX     -13.0971    XXY      13.6082    XYY       6.8137
       YYY      -8.3834    XXZ       6.3150    XYZ      14.4051
       YYZ      -2.7390    XZZ     -15.3351    YZZ      -2.4636
       ZZZ       2.1349
    Hexadecapole Moments (Debye-Ang^3)
      XXXX  -17724.7181   XXXY     240.0357   XXYY   -3181.8537
      XYYY      67.6164   YYYY   -1581.9291   XXXZ      63.3166
      XXYZ      83.2555   XYYZ     -24.5293   YYYZ     -26.3510
      XXZZ   -3231.2023   XYZZ      38.5462   YYZZ    -352.0006
      XZZZ      13.0965   YZZZ     -31.5273   ZZZZ    -530.1056
 -----------------------------------------------------------------
 Calculating analytic gradient of the SCF energy
 Gradient of SCF Energy
            1           2           3           4           5           6
    1  -0.0242023   0.0270250  -0.0271589   0.0311506  -0.0176268   0.0152938
    2  -0.0057931   0.0119819  -0.0111189   0.0463180  -0.0069317   0.0094318
    3  -0.0004715   0.0031489  -0.0022285   0.0142767   0.0005931   0.0046402
            7           8           9          10          11          12
    1   0.0007742  -0.0011189  -0.0012308  -0.0078193   0.0025274  -0.0023374
    2  -0.0028110   0.0027530   0.0031737   0.0036334  -0.0040027  -0.0077084
    3  -0.0009259   0.0024283   0.0024294   0.0004564  -0.0035716  -0.0056318
           13          14          15          16          17          18
    1   0.0009058   0.0074464  -0.0051784   0.0033328   0.0037793   0.0005716
    2   0.0035175   0.0038793   0.0019354   0.0011077  -0.0004749   0.0020707
    3  -0.0053752   0.0016183   0.0027611  -0.0006409   0.0028321   0.0008119
           19          20          21          22          23          24
    1  -0.0006721  -0.0011543  -0.0029741  -0.0006984   0.0007166  -0.0011675
    2  -0.0021378  -0.0047156  -0.0001049  -0.0038648   0.0014480  -0.0021585
    3  -0.0016910   0.0048264  -0.0001696  -0.0008647  -0.0084701   0.0056441
           25          26          27          28          29          30
    1  -0.0023261   0.0025513   0.0028490  -0.0003431  -0.0013558   0.0013008
    2   0.0001768   0.0033549  -0.0039861  -0.0013600   0.0014128   0.0012810
    3  -0.0024670   0.0044022  -0.0062574   0.0016844  -0.0003778   0.0007561
           31          32          33          34          35          36
    1  -0.0050456   0.0006116   0.0015540  -0.0007931   0.0237886  -0.0232875
    2  -0.0051040  -0.0016775   0.0016758   0.0025555  -0.0259665  -0.0099254
    3   0.0043412  -0.0021523   0.0011087  -0.0004578  -0.0227367  -0.0020879
           37          38          39          40          41          42
    1   0.0169570  -0.0076379   0.0008734  -0.0006099  -0.0031359  -0.0013318
    2   0.0094577   0.0011516  -0.0034755   0.0030137   0.0022277   0.0030322
    3   0.0023443   0.0007338  -0.0012180   0.0029695   0.0009628   0.0012147
           43          44          45          46          47          48
    1  -0.0011541  -0.0083944  -0.0088805   0.0061130   0.0071063   0.0004294
    2   0.0035379  -0.0264267  -0.0077907  -0.0022301  -0.0107901   0.0396577
    3   0.0021257  -0.0091322  -0.0032658  -0.0114089   0.0040111   0.0255465
           49          50          51
    1  -0.0093160   0.0044210   0.0048720
    2  -0.0042520   0.0000804  -0.0090592
    3  -0.0015178  -0.0103077   0.0047603
 Max gradient component =       4.632E-02
 RMS gradient           =       9.604E-03
 Gradient time:  CPU 21.42 s  wall 5.85 s
 Geometry Optimization Parameters
   NAtoms,    NIC,     NZ,  NCons,   NDum,   NFix, NCnnct, MaxDiis
       51     362       0       0       0       0       0       0

 Cartesian Hessian Update
 Hessian Updated using BFGS Update


** GEOMETRY OPTIMIZATION IN DELOCALIZED INTERNAL COORDINATES **
   Searching for a Minimum

   Optimization Cycle:   2

                       Coordinates (Angstroms)
     ATOM                X               Y               Z
      1  C         4.1025156366   -0.3689467279   -0.1782208147
      2  C         3.0249010594    0.3913745116    0.1553584264
      3  C         1.6479305895   -0.1019387343   -0.0106241798
      4  C         0.5206474901    0.5981529043    0.3133095943
      5  C        -0.7940690305   -0.0658417328    0.0743125889
      6  C        -2.0071231263    0.4982493027    0.3293762759
      7  H         3.1761249904    1.3897213990    0.5562568964
      8  H         1.5320734465   -1.1045960974   -0.4245670928
      9  H        -0.7458653922   -1.0547602934   -0.3744290475
     10  C        -3.3532768444   -0.1085380228    0.0707218040
     11  H        -2.0140518325    1.5284482899    0.6739236268
     12  C        -3.6412115645   -1.4538744806    0.2004113358
     13  C        -5.0308036708   -2.0189243880   -0.0876620215
     14  C        -6.1439354482   -0.9619735622   -0.0689686540
     15  H        -5.2962642415   -2.7924029971    0.6631801211
     16  H        -4.9920960199   -2.5274348411   -1.0753986598
     17  C        -5.7112189915    0.2156212015   -0.9380576905
     18  H        -6.3335823043   -0.6225080885    0.9677052550
     19  H        -7.0838474452   -1.4135325301   -0.4470477551
     20  C        -4.4467323537    0.9195386612   -0.3562384225
     21  H        -6.5321171123    0.9530608204   -1.0533866756
     22  H        -5.4893068546   -0.1853496187   -1.9508471993
     23  C        -2.6801849166   -2.5180771363    0.7061872690
     24  H        -1.7420710700   -2.1369683352    1.1312119846
     25  H        -2.4629126509   -3.2590725637   -0.0889127243
     26  H        -3.1551480914   -3.0609091691    1.5503068222
     27  C        -4.8370881534    1.7919761136    0.8731285210
     28  H        -5.2081972580    1.1746523916    1.7125348373
     29  H        -5.6292370284    2.5182155286    0.6007909078
     30  H        -3.9751979978    2.3736578351    1.2513695540
     31  C        -3.9149683115    1.8592970808   -1.4789868170
     32  H        -3.6050241714    1.2739835893   -2.3672128790
     33  H        -3.0452898494    2.4582553828   -1.1487520652
     34  H        -4.7023556978    2.5743840060   -1.7925961276
     35  C         5.5051700319    0.0708619974   -0.0330271652
     36  C         6.5229233190   -0.7616245323   -0.3868759253
     37  C         7.9553647090   -0.4278001566   -0.2869057778
     38  C         8.9250615853   -1.2947886480   -0.6499556492
     39  H         8.2444371034    0.5509397225    0.0910353902
     40  H         6.2724797111   -1.7497929881   -0.7760507746
     41  H         9.9757299861   -1.0206137271   -0.5661667470
     42  H         8.6838152494   -2.2855215520   -1.0341009650
     43  H         3.9330778979   -1.3701689070   -0.5790708153
     44  C         0.4879187813    1.8895636254    0.9633259007
     45  H         1.4816057691    2.2970864606    1.0958799092
     46  H         0.0262008208    1.8088436174    1.9430215402
     47  H        -0.0856938723    2.6025053783    0.3783138373
     48  C         5.7204352246    1.4964254934    0.7012205286
     49  H         6.7747126188    1.7304176599    0.7568888046
     50  H         5.3098796605    1.4421241538    1.7034316831
     51  H         5.2107242114    2.2729993002    0.1416674306
   Point Group: c1    Number of degrees of freedom:   147


   Energy is   -817.579574473

 Hessian Updated using BFGS Update

132 Hessian modes will be used to form the next step
  Hessian Eigenvalues:
     0.002000    0.002691    0.002782    0.004012    0.006976    0.007972
     0.008465    0.010026    0.010669    0.011889    0.012096    0.012099
     0.012176    0.013842    0.014081    0.018875    0.021137    0.021278
     0.021287    0.021290    0.021340    0.021497    0.023742    0.025420
     0.029672    0.030364    0.030381    0.030392    0.031001    0.031001
     0.031007    0.032064    0.045201    0.046775    0.050017    0.052556
     0.053540    0.053654    0.053935    0.054551    0.054992    0.060469
     0.065630    0.068056    0.072219    0.072223    0.075098    0.077234
     0.078007    0.081942    0.085196    0.085231    0.095319    0.097711
     0.120401    0.133145    0.158189    0.159031    0.159706    0.159900
     0.160000    0.160000    0.160000    0.160000    0.160000    0.163429
     0.185280    0.185934    0.217108    0.220000    0.220000    0.220000
     0.220004    0.220109    0.227114    0.234785    0.247921    0.248325
     0.249096    0.249450    0.249940    0.264085    0.270444    0.276202
     0.277669    0.287880    0.292368    0.297247    0.301772    0.306890
     0.312988    0.321202    0.323180    0.323677    0.323899    0.324071
     0.324206    0.324419    0.324572    0.325499    0.325829    0.326465
     0.326952    0.327111    0.327325    0.337725    0.340330    0.348029
     0.348567    0.349591    0.350698    0.350810    0.350834    0.351755
     0.352040    0.353095    0.354062    0.354412    0.357262    0.372053
     0.372296    0.372300    0.372303    0.372307    0.381203    0.469005
     0.527153    0.563040    0.572141    0.572818    0.582258    0.615084

 Minimum Search - Taking Simple RFO Step
 Searching for Lamda that Minimizes Along All modes
 Value Taken    Lamda =  -0.02683685
 Calculated Step too Large.  Step scaled by  0.808312
 Step Taken.  Stepsize is  0.300000

                             Maximum     Tolerance    Cnvgd?
         Gradient           0.032465      0.000300      NO
         Displacement       0.086521      0.001200      NO
         Energy change     -0.039630      0.000001      NO


 New Cartesian Coordinates Obtained by Inverse Iteration

 Displacement from previous Coordinates is:  0.874361
 ----------------------------------------------------------------
             Standard Nuclear Orientation (Angstroms)
    I     Atom           X                Y                Z
 ----------------------------------------------------------------
    1      C       4.1286235458    -0.3012375260    -0.1421578838
    2      C       3.0120149262     0.4291074729     0.1910802923
    3      C       1.6614519545    -0.0717083746     0.0167884452
    4      C       0.4913916190     0.5859058387     0.3439027588
    5      C      -0.7867739999    -0.0967132176     0.0763508385
    6      C      -2.0189238624     0.4419340674     0.3368980208
    7      H       3.1321909666     1.4317480115     0.6064744524
    8      H       1.5804898708    -1.0728572525    -0.4213775204
    9      H      -0.7056278938    -1.0755517028    -0.4021222432
   10      C      -3.3582661209    -0.1452986476     0.0722677335
   11      H      -2.0374277698     1.4689509326     0.7151639169
   12      C      -3.6692217843    -1.4815420378     0.2143505493
   13      C      -5.0662476239    -2.0379853830    -0.0885188815
   14      C      -6.1730792593    -0.9607461113    -0.0960811342
   15      H      -5.3226990684    -2.8179781372     0.6545877049
   16      H      -5.0352073037    -2.5509667046    -1.0739106892
   17      C      -5.7036960539     0.2251374878    -0.9598583812
   18      H      -6.3726882081    -0.6253370701     0.9380612282
   19      H      -7.1159716345    -1.3894413966    -0.4841381268
   20      C      -4.4272504314     0.9137318403    -0.3692119666
   21      H      -6.5009582830     0.9826053187    -1.0809118848
   22      H      -5.4708151180    -0.1601691171    -1.9729867330
   23      C      -2.7225459369    -2.5528308576     0.7423972700
   24      H      -1.7869367021    -2.1563580653     1.1575469826
   25      H      -2.4803189835    -3.2966777376    -0.0403894569
   26      H      -3.2176226791    -3.1075117744     1.5655025559
   27      C      -4.8218989136     1.7996432635     0.8602012538
   28      H      -5.2186561053     1.1932807966     1.6915865780
   29      H      -5.5929686574     2.5386244626     0.5738445391
   30      H      -3.9558627384     2.3620332327     1.2495086954
   31      C      -3.8549762542     1.8433842190    -1.4909199282
   32      H      -3.5440503809     1.2504454573    -2.3685248231
   33      H      -2.9811328978     2.4249083088    -1.1529494353
   34      H      -4.6270914577     2.5637122536    -1.8179473332
   35      C       5.5193300563     0.1333529123    -0.0024756751
   36      C       6.5375416683    -0.7145868481    -0.3751418650
   37      C       7.9711880481    -0.4476854783    -0.3127260171
   38      C       8.9185983773    -1.3444851787    -0.7026418372
   39      H       8.2944185160     0.5259520617     0.0664869229
   40      H       6.2598143021    -1.6994893613    -0.7692426531
   41      H       9.9837228676    -1.1108662447    -0.6429799850
   42      H       8.6468175576    -2.3309332332    -1.0887141852
   43      H       3.9841445906    -1.3080756251    -0.5537962987
   44      C       0.4247223358     1.9139141765     1.0229955711
   45      H       1.4154993251     2.3620680693     1.1735925723
   46      H      -0.0526695724     1.8227389460     2.0126289297
   47      H      -0.1759640968     2.6331712780     0.4412015682
   48      C       5.7634175356     1.5054810888     0.6603388019
   49      H       6.8319641073     1.7414074882     0.6959497158
   50      H       5.3677131502     1.4838384094     1.6852224074
   51      H       5.2473530614     2.2943522859     0.0956028325
 ----------------------------------------------------------------
 Molecular Point Group                 C1    NOp =  1
 Largest Abelian Subgroup              C1    NOp =  1
 Nuclear Repulsion Energy =  1505.4863784753 hartrees
 There are       78 alpha and       78 beta electrons
 Applying Cartesian multipole field
    Component          Value
    ---------          -----
     (2,0,0)        1.00000E-12
     (0,2,0)        2.00000E-11
     (0,0,2)       -3.00000E-11
 Nucleus-field energy     =     0.0000000254 hartrees
 Requested basis set is 6-31G
 There are 123 shells and 249 basis functions
 A cutoff of  1.0D-11 yielded   4100 shell pairs
 There are     18509 function pairs
 Smallest overlap matrix eigenvalue = 1.76E-03
 Guess MOs from SCF MO coefficient file

 -----------------------------------------------------------------------
  General SCF calculation program by
  Eric Jon Sundstrom, Paul Horn, Yuezhi Mao, Dmitri Zuev, Alec White,
  David Stuck, Shaama M.S., Shane Yost, Joonho Lee, David Small,
  Daniel Levine, Susi Lehtola, Hugh Burton, Evgeny Epifanovsky
 -----------------------------------------------------------------------
 Exchange:  B88      Correlation:  LYP
 Using SG-1 standard quadrature grid
 using 4 threads for integral computing
 -------------------------------------------------------
 OpenMP Integral computing Module                
 Release: version 1.0, May 2013, Q-Chem Inc. Pittsburgh 
 -------------------------------------------------------
 -------------------------------------------------------
 OpenMP BLAS3 based DFT computing Module                
 Release: version 1.0, May 2013, Q-Chem Inc. Pittsburgh 
 -------------------------------------------------------
 A restricted SCF calculation will be
 performed using DIIS
 SCF converges when DIIS error is below 1.0e-08
 ---------------------------------------
  Cycle       Energy         DIIS error
 ---------------------------------------
    1    -817.5866895041      6.57e-04  
    2    -817.5928001084      2.87e-04  
    3    -817.5915528785      4.51e-04  
    4    -817.5932119627      1.63e-04  
    5    -817.5935053959      1.69e-05  
    6    -817.5935065681      1.28e-05  
    7    -817.5935079320      3.99e-06  
    8    -817.5935080850      1.39e-06  
    9    -817.5935081046      4.77e-07  
   10    -817.5935081066      1.39e-07  
   11    -817.5935081068      5.75e-08  
   12    -817.5935081068      1.29e-08  
   13    -817.5935081068      4.66e-09  Convergence criterion met
 ---------------------------------------
 SCF time:   CPU 124.36s  wall 31.00s 
 SCF   energy in the final basis set =     -817.5935081068
 Total energy in the final basis set =     -817.5935081068
 
 --------------------------------------------------------------
 
                    Orbital Energies (a.u.)
 --------------------------------------------------------------
 
 Alpha MOs
 -- Occupied --
 -9.932  -9.931  -9.928  -9.922  -9.921  -9.918  -9.918  -9.917
 -9.917  -9.916  -9.914  -9.914  -9.913  -9.913  -9.912  -9.910
 -9.910  -9.908  -9.906  -9.904  -9.900  -0.754  -0.741  -0.730
 -0.697  -0.695  -0.682  -0.661  -0.639  -0.613  -0.608  -0.603
 -0.598  -0.592  -0.553  -0.527  -0.505  -0.492  -0.477  -0.467
 -0.457  -0.438  -0.419  -0.413  -0.403  -0.391  -0.386  -0.380
 -0.370  -0.366  -0.365  -0.364  -0.362  -0.349  -0.347  -0.341
 -0.340  -0.334  -0.332  -0.327  -0.320  -0.316  -0.311  -0.304
 -0.298  -0.295  -0.290  -0.286  -0.282  -0.279  -0.270  -0.264
 -0.256  -0.246  -0.238  -0.208  -0.180  -0.146
 -- Virtual --
 -0.076  -0.030   0.008   0.042   0.057   0.064   0.067   0.074
  0.081   0.086   0.090   0.096   0.100   0.101   0.108   0.112
  0.117   0.124   0.131   0.134   0.140   0.144   0.151   0.155
  0.156   0.158   0.163   0.166   0.169   0.173   0.181   0.185
  0.188   0.194   0.196   0.198   0.205   0.210   0.215   0.218
  0.223   0.235   0.239   0.250   0.252   0.257   0.272   0.306
  0.325   0.337   0.364   0.370   0.385   0.393   0.411   0.417
  0.445   0.479   0.483   0.486   0.490   0.495   0.498   0.505
  0.517   0.522   0.526   0.533   0.536   0.541   0.544   0.552
  0.557   0.568   0.571   0.574   0.583   0.602   0.604   0.609
  0.612   0.616   0.618   0.633   0.634   0.640   0.650   0.656
  0.659   0.666   0.685   0.687   0.693   0.701   0.708   0.710
  0.721   0.725   0.728   0.735   0.753   0.768   0.776   0.779
  0.794   0.797   0.803   0.806   0.813   0.830   0.835   0.844
  0.855   0.863   0.868   0.877   0.885   0.887   0.888   0.890
  0.903   0.911   0.917   0.917   0.926   0.927   0.933   0.939
  0.944   0.949   0.951   0.960   0.966   0.969   0.973   0.985
  0.994   1.023   1.025   1.044   1.056   1.071   1.080   1.090
  1.118   1.127   1.149   1.158   1.165   1.181   1.191   1.198
  1.213   1.243   1.267   1.280   1.295   1.303   1.335   1.349
  1.405   1.429   1.438   1.494   1.525   1.549   1.564   1.598
  1.659   1.723   1.811
 --------------------------------------------------------------
 
          Ground-State Mulliken Net Atomic Charges

     Atom                 Charge (a.u.)
  ----------------------------------------
      1 C                    -0.142601
      2 C                    -0.082231
      3 C                    -0.152226
      4 C                     0.145644
      5 C                    -0.113410
      6 C                    -0.160196
      7 H                     0.095670
      8 H                     0.086583
      9 H                     0.096565
     10 C                     0.098537
     11 H                     0.096079
     12 C                     0.090029
     13 C                    -0.274566
     14 C                    -0.215928
     15 H                     0.109329
     16 H                     0.121074
     17 C                    -0.206817
     18 H                     0.114469
     19 H                     0.099719
     20 C                     0.007939
     21 H                     0.096738
     22 H                     0.105435
     23 C                    -0.440323
     24 H                     0.138868
     25 H                     0.127497
     26 H                     0.121020
     27 C                    -0.369267
     28 H                     0.122149
     29 H                     0.113433
     30 H                     0.117117
     31 C                    -0.359764
     32 H                     0.118906
     33 H                     0.111429
     34 H                     0.109533
     35 C                     0.145616
     36 C                    -0.157879
     37 C                    -0.029934
     38 C                    -0.284165
     39 H                     0.095519
     40 H                     0.088201
     41 H                     0.105076
     42 H                     0.107384
     43 H                     0.087310
     44 C                    -0.457028
     45 H                     0.126673
     46 H                     0.143762
     47 H                     0.139111
     48 C                    -0.444077
     49 H                     0.127230
     50 H                     0.142653
     51 H                     0.138114
  ----------------------------------------
  Sum of atomic charges =    -0.000000

 -----------------------------------------------------------------
                    Cartesian Multipole Moments
 -----------------------------------------------------------------
    Charge (ESU x 10^10)
                -0.0000
    Dipole Moment (Debye)
         X      -0.9816      Y       0.4038      Z       0.3680
       Tot       1.1234
    Quadrupole Moments (Debye-Ang)
        XX    -127.6423     XY       3.7295     YY    -125.2996
        XZ       1.7116     YZ       3.8274     ZZ    -134.5818
    Octopole Moments (Debye-Ang^2)
       XXX     -11.9680    XXY      11.9280    XYY       4.2829
       YYY      -8.9166    XXZ       3.7920    XYZ      14.4627
       YYZ      -2.8487    XZZ     -16.0620    YZZ      -2.0779
       ZZZ       0.4645
    Hexadecapole Moments (Debye-Ang^3)
      XXXX  -17702.1519   XXXY     199.8138   XXYY   -3195.3171
      XYYY      47.9727   YYYY   -1599.4746   XXXZ      51.3471
      XXYZ      80.6276   XYYZ     -23.1552   YYYZ     -28.4817
      XXZZ   -3243.0070   XYZZ      28.8707   YYZZ    -357.5615
      XZZZ      21.0562   YZZZ     -32.9367   ZZZZ    -544.1905
 -----------------------------------------------------------------
 Calculating analytic gradient of the SCF energy
 Gradient of SCF Energy
            1           2           3           4           5           6
    1  -0.0086076   0.0079364  -0.0103580   0.0123071  -0.0073186   0.0068361
    2  -0.0007773   0.0049171  -0.0063533   0.0195457  -0.0045262   0.0036839
    3   0.0010714   0.0008604  -0.0012204   0.0043059   0.0002531   0.0014777
            7           8           9          10          11          12
    1  -0.0006668   0.0007867   0.0005835  -0.0037677   0.0013560   0.0009319
    2  -0.0006302   0.0005452   0.0009706   0.0009629   0.0010423  -0.0016561
    3  -0.0001259   0.0010591   0.0005324   0.0017774  -0.0012588  -0.0030040
           13          14          15          16          17          18
    1   0.0004919   0.0008401  -0.0017281   0.0011685   0.0002770   0.0006567
    2  -0.0008801   0.0009311   0.0008294   0.0005234   0.0009576   0.0003587
    3  -0.0021940   0.0015928   0.0008692  -0.0000523  -0.0004685  -0.0000731
           19          20          21          22          23          24
    1  -0.0001770   0.0000458  -0.0004962  -0.0000740   0.0006203  -0.0008084
    2  -0.0007754  -0.0018164  -0.0000147  -0.0013010  -0.0008057  -0.0009892
    3  -0.0000755   0.0021735  -0.0005960   0.0000904  -0.0044390   0.0023162
           25          26          27          28          29          30
    1  -0.0014223   0.0008533   0.0006807   0.0001645  -0.0002914   0.0000356
    2   0.0002306   0.0012248  -0.0011891   0.0001956   0.0003179   0.0002390
    3  -0.0001419   0.0022992  -0.0017841   0.0005510   0.0002540   0.0001969
           31          32          33          34          35          36
    1  -0.0012342   0.0000237   0.0003559   0.0003052   0.0098224  -0.0085281
    2  -0.0011470  -0.0000395   0.0004992   0.0006457  -0.0060910  -0.0008655
    3   0.0006339  -0.0002403  -0.0001265   0.0001226  -0.0089873   0.0013809
           37          38          39          40          41          42
    1   0.0052895  -0.0011193  -0.0007338   0.0003651  -0.0003640  -0.0004591
    2   0.0040563  -0.0013743  -0.0004753   0.0004284   0.0008670   0.0005699
    3   0.0007326  -0.0004901  -0.0001797   0.0012148   0.0003871   0.0002451
           43          44          45          46          47          48
    1   0.0003095  -0.0055506  -0.0004375   0.0009340   0.0007517  -0.0012564
    2   0.0004725  -0.0130815  -0.0011017  -0.0005703  -0.0016623   0.0126635
    3   0.0007302  -0.0041194  -0.0005827  -0.0017453   0.0003507   0.0095639
           49          50          51
    1  -0.0008795   0.0006327   0.0009172
    2  -0.0029251  -0.0028888  -0.0037409
    3  -0.0015191  -0.0030804  -0.0005381
 Max gradient component =       1.955E-02
 RMS gradient           =       3.604E-03
 Gradient time:  CPU 21.28 s  wall 5.82 s
 Geometry Optimization Parameters
   NAtoms,    NIC,     NZ,  NCons,   NDum,   NFix, NCnnct, MaxDiis
       51     362       0       0       0       0       0       0

 Cartesian Hessian Update
 Hessian Updated using BFGS Update


** GEOMETRY OPTIMIZATION IN DELOCALIZED INTERNAL COORDINATES **
   Searching for a Minimum

   Optimization Cycle:   3

                       Coordinates (Angstroms)
     ATOM                X               Y               Z
      1  C         4.1286235458   -0.3012375260   -0.1421578838
      2  C         3.0120149262    0.4291074729    0.1910802923
      3  C         1.6614519545   -0.0717083746    0.0167884452
      4  C         0.4913916190    0.5859058387    0.3439027588
      5  C        -0.7867739999   -0.0967132176    0.0763508385
      6  C        -2.0189238624    0.4419340674    0.3368980208
      7  H         3.1321909666    1.4317480115    0.6064744524
      8  H         1.5804898708   -1.0728572525   -0.4213775204
      9  H        -0.7056278938   -1.0755517028   -0.4021222432
     10  C        -3.3582661209   -0.1452986476    0.0722677335
     11  H        -2.0374277698    1.4689509326    0.7151639169
     12  C        -3.6692217843   -1.4815420378    0.2143505493
     13  C        -5.0662476239   -2.0379853830   -0.0885188815
     14  C        -6.1730792593   -0.9607461113   -0.0960811342
     15  H        -5.3226990684   -2.8179781372    0.6545877049
     16  H        -5.0352073037   -2.5509667046   -1.0739106892
     17  C        -5.7036960539    0.2251374878   -0.9598583812
     18  H        -6.3726882081   -0.6253370701    0.9380612282
     19  H        -7.1159716345   -1.3894413966   -0.4841381268
     20  C        -4.4272504314    0.9137318403   -0.3692119666
     21  H        -6.5009582830    0.9826053187   -1.0809118848
     22  H        -5.4708151180   -0.1601691171   -1.9729867330
     23  C        -2.7225459369   -2.5528308576    0.7423972700
     24  H        -1.7869367021   -2.1563580653    1.1575469826
     25  H        -2.4803189835   -3.2966777376   -0.0403894569
     26  H        -3.2176226791   -3.1075117744    1.5655025559
     27  C        -4.8218989136    1.7996432635    0.8602012538
     28  H        -5.2186561053    1.1932807966    1.6915865780
     29  H        -5.5929686574    2.5386244626    0.5738445391
     30  H        -3.9558627384    2.3620332327    1.2495086954
     31  C        -3.8549762542    1.8433842190   -1.4909199282
     32  H        -3.5440503809    1.2504454573   -2.3685248231
     33  H        -2.9811328978    2.4249083088   -1.1529494353
     34  H        -4.6270914577    2.5637122536   -1.8179473332
     35  C         5.5193300563    0.1333529123   -0.0024756751
     36  C         6.5375416683   -0.7145868481   -0.3751418650
     37  C         7.9711880481   -0.4476854783   -0.3127260171
     38  C         8.9185983773   -1.3444851787   -0.7026418372
     39  H         8.2944185160    0.5259520617    0.0664869229
     40  H         6.2598143021   -1.6994893613   -0.7692426531
     41  H         9.9837228676   -1.1108662447   -0.6429799850
     42  H         8.6468175576   -2.3309332332   -1.0887141852
     43  H         3.9841445906   -1.3080756251   -0.5537962987
     44  C         0.4247223358    1.9139141765    1.0229955711
     45  H         1.4154993251    2.3620680693    1.1735925723
     46  H        -0.0526695724    1.8227389460    2.0126289297
     47  H        -0.1759640968    2.6331712780    0.4412015682
     48  C         5.7634175356    1.5054810888    0.6603388019
     49  H         6.8319641073    1.7414074882    0.6959497158
     50  H         5.3677131502    1.4838384094    1.6852224074
     51  H         5.2473530614    2.2943522859    0.0956028325
   Point Group: c1    Number of degrees of freedom:   147


   Energy is   -817.593508107

 Hessian Updated using BFGS Update

131 Hessian modes will be used to form the next step
  Hessian Eigenvalues:
     0.002000    0.002691    0.002782    0.004013    0.006980    0.008030
     0.008464    0.010025    0.010694    0.011907    0.012095    0.012122
     0.012176    0.013847    0.014101    0.018869    0.021142    0.021278
     0.021287    0.021290    0.021342    0.021497    0.023724    0.025426
     0.029670    0.030305    0.030375    0.030395    0.031001    0.031001
     0.031016    0.032089    0.045289    0.046785    0.050020    0.052562
     0.053537    0.053653    0.053932    0.054550    0.054999    0.060468
     0.065351    0.068004    0.072173    0.072225    0.075092    0.077218
     0.078052    0.082070    0.085231    0.085323    0.095326    0.097753
     0.120258    0.133154    0.148380    0.158986    0.159722    0.159908
     0.160000    0.160000    0.160000    0.161104    0.164167    0.185371
     0.198732    0.217975    0.220000    0.220000    0.220002    0.220108
     0.222125    0.227199    0.233552    0.245778    0.248494    0.249258
     0.249565    0.255351    0.264271    0.270420    0.277544    0.278718
     0.287556    0.290898    0.296876    0.303387    0.307070    0.312221
     0.321308    0.323382    0.323848    0.323990    0.324078    0.324400
     0.324481    0.324607    0.325473    0.325959    0.326604    0.327041
     0.327231    0.327481    0.337764    0.340801    0.348193    0.348570
     0.350560    0.350750    0.350816    0.350858    0.351892    0.352628
     0.353349    0.354121    0.356745    0.361185    0.372207    0.372298
     0.372300    0.372306    0.374718    0.381715    0.468628    0.513841
     0.563390    0.571340    0.573377    0.581405    0.595174

 Minimum Search - Taking Simple RFO Step
 Searching for Lamda that Minimizes Along All modes
 Value Taken    Lamda =  -0.00524794
 Step Taken.  Stepsize is  0.295191

                             Maximum     Tolerance    Cnvgd?
         Gradient           0.011215      0.000300      NO
         Displacement       0.080154      0.001200      NO
         Energy change     -0.013934      0.000001      NO


 New Cartesian Coordinates Obtained by Inverse Iteration

 Displacement from previous Coordinates is:  1.530648
 ----------------------------------------------------------------
             Standard Nuclear Orientation (Angstroms)
    I     Atom           X                Y                Z
 ----------------------------------------------------------------
    1      C       4.1192847539    -0.2545369123    -0.1069229513
    2      C       3.0043037342     0.4697067062     0.2631303083
    3      C       1.6564115895     0.0005282867     0.0768510445
    4      C       0.4776486921     0.6405196595     0.4323152542
    5      C      -0.7919160093    -0.0223064344     0.1271183323
    6      C      -2.0466694995     0.4750764149     0.3861597699
    7      H       3.1423162422     1.4546193592     0.7206329161
    8      H       1.5615169294    -0.9787105280    -0.4112733758
    9      H      -0.6981022210    -0.9835697392    -0.3888479243
   10      C      -3.3589011995    -0.1331700062     0.0830344845
   11      H      -2.1048673946     1.4796685186     0.8180090653
   12      C      -3.6433692147    -1.4700065493     0.2443047408
   13      C      -5.0120901254    -2.0740247053    -0.0999445488
   14      C      -6.1500353701    -1.0287141138    -0.1703562564
   15      H      -5.2574873305    -2.8592100918     0.6397830928
   16      H      -4.9371077339    -2.5992274538    -1.0768783832
   17      C      -5.6788703517     0.1684147890    -1.0238934786
   18      H      -6.4066159661    -0.6926287456     0.8510553652
   19      H      -7.0639326651    -1.4808739942    -0.5957520601
   20      C      -4.4389677708     0.8996182885    -0.4041680826
   21      H      -6.4906906358     0.9047452782    -1.1672235420
   22      H      -5.4038892156    -0.2038542213    -2.0303726729
   23      C      -2.6673762430    -2.4940411053     0.8127733308
   24      H      -1.7685715984    -2.0375130991     1.2482336114
   25      H      -2.3413197885    -3.2161722098     0.0390459112
   26      H      -3.1661152516    -3.0906842516     1.6012273781
   27      C      -4.9020445490     1.7869525164     0.8034027744
   28      H      -5.3230210357     1.1745948549     1.6173289200
   29      H      -5.6742584596     2.5061120562     0.4759827914
   30      H      -4.0644086121     2.3681632742     1.2241162189
   31      C      -3.8520805921     1.8302749772    -1.5190044414
   32      H      -3.4846341502     1.2320546785    -2.3699412600
   33      H      -3.0146672623     2.4457278284    -1.1542812303
   34      H      -4.6377652283     2.5120605823    -1.8913694445
   35      C       5.5087837436     0.1496392231     0.0352093862
   36      C       6.4936779850    -0.7233434260    -0.3963845617
   37      C       7.9319578657    -0.5368049153    -0.3744323958
   38      C       8.8251514008    -1.4613865377    -0.8286165437
   39      H       8.3212693466     0.4042498581     0.0307274004
   40      H       6.1586306182    -1.6811866841    -0.8181922289
   41      H       9.9029068051    -1.2863575564    -0.7973201989
   42      H       8.4967239545    -2.4197491861    -1.2435907462
   43      H       3.9581766255    -1.2431407916    -0.5597439436
   44      C       0.4541447583     1.9765175694     1.1508466711
   45      H       1.4606177480     2.3959069114     1.3016838765
   46      H      -0.0190771448     1.8798406318     2.1467984195
   47      H      -0.1346300959     2.7275331125     0.5898010902
   48      C       5.8083219748     1.5052377488     0.6621720776
   49      H       6.8810948256     1.7421773298     0.6711070359
   50      H       5.4505161700     1.5366667503     1.7073628006
   51      H       5.2948855429     2.3190026509     0.1191044021
 ----------------------------------------------------------------
 Molecular Point Group                 C1    NOp =  1
 Largest Abelian Subgroup              C1    NOp =  1
 Nuclear Repulsion Energy =  1504.1119233860 hartrees
 There are       78 alpha and       78 beta electrons
 Applying Cartesian multipole field
    Component          Value
    ---------          -----
     (2,0,0)        1.00000E-12
     (0,2,0)        2.00000E-11
     (0,0,2)       -3.00000E-11
 Nucleus-field energy     =     0.0000000247 hartrees
 Requested basis set is 6-31G
 There are 123 shells and 249 basis functions
 A cutoff of  1.0D-11 yielded   4099 shell pairs
 There are     18517 function pairs
 Smallest overlap matrix eigenvalue = 1.80E-03
 Guess MOs from SCF MO coefficient file

 -----------------------------------------------------------------------
  General SCF calculation program by
  Eric Jon Sundstrom, Paul Horn, Yuezhi Mao, Dmitri Zuev, Alec White,
  David Stuck, Shaama M.S., Shane Yost, Joonho Lee, David Small,
  Daniel Levine, Susi Lehtola, Hugh Burton, Evgeny Epifanovsky
 -----------------------------------------------------------------------
 Exchange:  B88      Correlation:  LYP
 Using SG-1 standard quadrature grid
 using 4 threads for integral computing
 -------------------------------------------------------
 OpenMP Integral computing Module                
 Release: version 1.0, May 2013, Q-Chem Inc. Pittsburgh 
 -------------------------------------------------------
 -------------------------------------------------------
 OpenMP BLAS3 based DFT computing Module                
 Release: version 1.0, May 2013, Q-Chem Inc. Pittsburgh 
 -------------------------------------------------------
 A restricted SCF calculation will be
 performed using DIIS
 SCF converges when DIIS error is below 1.0e-08
 ---------------------------------------
  Cycle       Energy         DIIS error
 ---------------------------------------
    1    -817.5831382154      8.55e-04  
    2    -817.5961163134      1.14e-04  
    3    -817.5956312784      2.47e-04  
    4    -817.5961638353      7.75e-05  
    5    -817.5962321543      1.48e-05  
    6    -817.5962333384      1.06e-05  
    7    -817.5962344197      2.87e-06  
    8    -817.5962345037      7.98e-07  
    9    -817.5962345092      3.03e-07  
   10    -817.5962345100      8.77e-08  
   11    -817.5962345100      4.38e-08  
   12    -817.5962345100      1.12e-08  
   13    -817.5962345100      4.47e-09  Convergence criterion met
 ---------------------------------------
 SCF time:   CPU 123.97s  wall 31.00s 
 SCF   energy in the final basis set =     -817.5962345100
 Total energy in the final basis set =     -817.5962345100
 
 --------------------------------------------------------------
 
                    Orbital Energies (a.u.)
 --------------------------------------------------------------
 
 Alpha MOs
 -- Occupied --
 -9.932  -9.931  -9.929  -9.922  -9.922  -9.918  -9.917  -9.917
 -9.917  -9.916  -9.915  -9.914  -9.914  -9.914  -9.914  -9.911
 -9.910  -9.908  -9.905  -9.903  -9.900  -0.754  -0.742  -0.729
 -0.697  -0.694  -0.682  -0.661  -0.639  -0.613  -0.608  -0.603
 -0.597  -0.592  -0.555  -0.528  -0.506  -0.492  -0.476  -0.468
 -0.457  -0.437  -0.419  -0.413  -0.404  -0.392  -0.386  -0.379
 -0.371  -0.364  -0.364  -0.362  -0.361  -0.349  -0.347  -0.341
 -0.340  -0.334  -0.332  -0.326  -0.319  -0.315  -0.310  -0.304
 -0.298  -0.295  -0.290  -0.286  -0.284  -0.280  -0.269  -0.264
 -0.256  -0.246  -0.238  -0.208  -0.181  -0.145
 -- Virtual --
 -0.078  -0.030   0.008   0.041   0.057   0.063   0.066   0.075
  0.081   0.085   0.089   0.095   0.100   0.102   0.108   0.111
  0.117   0.124   0.130   0.134   0.141   0.144   0.150   0.155
  0.157   0.159   0.163   0.166   0.168   0.171   0.181   0.184
  0.189   0.192   0.195   0.199   0.206   0.209   0.215   0.217
  0.221   0.232   0.240   0.248   0.251   0.255   0.272   0.305
[...]
 Max gradient component =       2.645E-05
 RMS gradient           =       8.549E-06
 Gradient time:  CPU 21.34 s  wall 5.84 s
 Geometry Optimization Parameters
   NAtoms,    NIC,     NZ,  NCons,   NDum,   NFix, NCnnct, MaxDiis
       51     362       0       0       0       0       0       0

 Cartesian Hessian Update
 Hessian Updated using BFGS Update


** GEOMETRY OPTIMIZATION IN DELOCALIZED INTERNAL COORDINATES **
   Searching for a Minimum

   Optimization Cycle:  19

                       Coordinates (Angstroms)
     ATOM                X               Y               Z
      1  C         4.0813911272   -0.2533170003   -0.0804055180
      2  C         2.9912654744    0.4585517410    0.3805720580
      3  C         1.6349211187   -0.0042055398    0.2363585711
      4  C         0.4612810089    0.6257571512    0.6275604360
      5  C        -0.8105042102   -0.0235836362    0.3198639676
      6  C        -2.0639206522    0.4900002671    0.5460089223
      7  H         3.1606740585    1.4244279360    0.8655829536
      8  H         1.5253910855   -0.9754732152   -0.2654147914
      9  H        -0.7288195225   -0.9925629969   -0.1854063046
     10  C        -3.3587375186   -0.1211864610    0.1678902080
     11  H        -2.1313160140    1.4986704500    0.9709937209
     12  C        -3.6667768683   -1.4474152707    0.3696919878
     13  C        -4.9939971930   -2.0708474219   -0.0747605541
     14  C        -6.1060314617   -1.0463049686   -0.4033309069
     15  H        -5.3428733079   -2.7733019975    0.7071824925
     16  H        -4.8005153520   -2.7048299457   -0.9681175210
     17  C        -5.5151982933    0.1235777986   -1.2182990676
     18  H        -6.5553632517   -0.6687665287    0.5339756665
     19  H        -6.9210419151   -1.5380656374   -0.9652275365
     20  C        -4.3861091447    0.8883724812   -0.4544323403
     21  H        -6.3043888702    0.8433578354   -1.5056555657
     22  H        -5.0927806680   -0.2786537657   -2.1604881347
     23  C        -2.7322665190   -2.4448706377    1.0470838479
     24  H        -1.9385201560   -1.9538647755    1.6277246265
     25  H        -2.2416694442   -3.1125251552    0.3104705283
     26  H        -3.3049979683   -3.1030994631    1.7270241026
     27  C        -5.0105102583    1.7734985260    0.6790178325
     28  H        -5.5859290417    1.1640134781    1.3945165392
     29  H        -5.6854558608    2.5315849090    0.2420506740
     30  H        -4.2305495108    2.3096755247    1.2467114044
     31  C        -3.6799902963    1.8298800480   -1.4870430208
     32  H        -3.1768235424    1.2438532227   -2.2751143578
     33  H        -2.9244843138    2.4737281750   -1.0087928247
     34  H        -4.4285300499    2.4850882705   -1.9684570431
     35  C         5.4789238751    0.1430390087   -0.0036691454
     36  C         6.4386328508   -0.7085277569   -0.5288432021
     37  C         7.8769700874   -0.5230275626   -0.5688082303
     38  C         8.7470174731   -1.4254746647   -1.1052300341
     39  H         8.2885677597    0.3982027782   -0.1414932592
     40  H         6.0781232987   -1.6455254309   -0.9742655403
     41  H         9.8249435534   -1.2499300633   -1.1165416946
     42  H         8.4008096367   -2.3650501200   -1.5476424909
     43  H         3.8875324471   -1.2201032672   -0.5642689004
     44  C         0.4402583483    1.9732559418    1.3389340997
     45  H         1.4487483944    2.3472917537    1.5625731332
     46  H        -0.1122526543    1.9060501948    2.2935517786
     47  H        -0.0715941274    2.7385640887    0.7260450269
     48  C         5.8194830633    1.4812519070    0.6450561458
     49  H         6.8996661193    1.6797268170    0.6607506748
     50  H         5.4582612104    1.5180802656    1.6889985463
     51  H         5.3339445866    2.3154093096    0.1063262388
   Point Group: c1    Number of degrees of freedom:   147


   Energy is   -817.596806064

 Hessian Updated using BFGS Update

147 Hessian modes will be used to form the next step
  Hessian Eigenvalues:
     0.000899    0.001620    0.002274    0.003175    0.003627    0.006476
     0.007285    0.008559    0.010048    0.011768    0.012119    0.012173
     0.013949    0.014526    0.016498    0.016593    0.020173    0.021068
     0.021256    0.021364    0.021481    0.021542    0.022856    0.025178
     0.029286    0.029774    0.030441    0.030969    0.031004    0.031962
     0.032277    0.039161    0.045064    0.047217    0.050285    0.053005
     0.053669    0.053907    0.054543    0.054850    0.055482    0.060528
     0.066057    0.068352    0.072083    0.072308    0.075293    0.077527
     0.078134    0.082130    0.083858    0.085519    0.095249    0.098830
     0.120861    0.142104    0.147143    0.155658    0.156789    0.157646
     0.159617    0.159677    0.159914    0.159994    0.159999    0.160000
     0.160000    0.160000    0.160018    0.160024    0.160106    0.160132
     0.160317    0.160353    0.161002    0.161135    0.161430    0.161672
     0.162038    0.164212    0.164686    0.187880    0.206642    0.217524
     0.219931    0.220785    0.222323    0.223570    0.226183    0.227564
     0.230924    0.247012    0.255029    0.256305    0.265215    0.273005
     0.277636    0.280653    0.287959    0.289500    0.294787    0.296879
     0.303098    0.307392    0.312008    0.321377    0.322982    0.323555
     0.323798    0.324066    0.324373    0.324462    0.324684    0.325443
     0.326142    0.326863    0.327230    0.327514    0.328331    0.333665
     0.339001    0.348680    0.349058    0.350644    0.350774    0.351034
     0.351396    0.352318    0.352693    0.353296    0.353902    0.357001
     0.367180    0.370600    0.372039    0.372194    0.373797    0.375175
     0.382343    0.402849    0.495785    0.528054    0.572222    0.575289
     0.581283    0.584950    0.597004

 Minimum Search - Taking Simple RFO Step
 Searching for Lamda that Minimizes Along All modes
 Value Taken    Lamda =   0.00000000
 Step Taken.  Stepsize is  0.002929

                             Maximum     Tolerance    Cnvgd?
         Gradient           0.000022      0.000300     YES
         Displacement       0.000944      0.001200     YES
         Energy change     -0.000000      0.000001     YES

 Final energy is   -817.596806063902     


 ******************************
 **  OPTIMIZATION CONVERGED  **
 ******************************

                       Coordinates (Angstroms)
     ATOM                X               Y               Z
      1  C         4.0813911272   -0.2533170003   -0.0804055180
      2  C         2.9912654744    0.4585517410    0.3805720580
      3  C         1.6349211187   -0.0042055398    0.2363585711
      4  C         0.4612810089    0.6257571512    0.6275604360
      5  C        -0.8105042102   -0.0235836362    0.3198639676
      6  C        -2.0639206522    0.4900002671    0.5460089223
      7  H         3.1606740585    1.4244279360    0.8655829536
      8  H         1.5253910855   -0.9754732152   -0.2654147914
      9  H        -0.7288195225   -0.9925629969   -0.1854063046
     10  C        -3.3587375186   -0.1211864610    0.1678902080
     11  H        -2.1313160140    1.4986704500    0.9709937209
     12  C        -3.6667768683   -1.4474152707    0.3696919878
     13  C        -4.9939971930   -2.0708474219   -0.0747605541
     14  C        -6.1060314617   -1.0463049686   -0.4033309069
     15  H        -5.3428733079   -2.7733019975    0.7071824925
     16  H        -4.8005153520   -2.7048299457   -0.9681175210
     17  C        -5.5151982933    0.1235777986   -1.2182990676
     18  H        -6.5553632517   -0.6687665287    0.5339756665
     19  H        -6.9210419151   -1.5380656374   -0.9652275365
     20  C        -4.3861091447    0.8883724812   -0.4544323403
     21  H        -6.3043888702    0.8433578354   -1.5056555657
     22  H        -5.0927806680   -0.2786537657   -2.1604881347
     23  C        -2.7322665190   -2.4448706377    1.0470838479
     24  H        -1.9385201560   -1.9538647755    1.6277246265
     25  H        -2.2416694442   -3.1125251552    0.3104705283
     26  H        -3.3049979683   -3.1030994631    1.7270241026
     27  C        -5.0105102583    1.7734985260    0.6790178325
     28  H        -5.5859290417    1.1640134781    1.3945165392
     29  H        -5.6854558608    2.5315849090    0.2420506740
     30  H        -4.2305495108    2.3096755247    1.2467114044
     31  C        -3.6799902963    1.8298800480   -1.4870430208
     32  H        -3.1768235424    1.2438532227   -2.2751143578
     33  H        -2.9244843138    2.4737281750   -1.0087928247
     34  H        -4.4285300499    2.4850882705   -1.9684570431
     35  C         5.4789238751    0.1430390087   -0.0036691454
     36  C         6.4386328508   -0.7085277569   -0.5288432021
     37  C         7.8769700874   -0.5230275626   -0.5688082303
     38  C         8.7470174731   -1.4254746647   -1.1052300341
     39  H         8.2885677597    0.3982027782   -0.1414932592
     40  H         6.0781232987   -1.6455254309   -0.9742655403
     41  H         9.8249435534   -1.2499300633   -1.1165416946
     42  H         8.4008096367   -2.3650501200   -1.5476424909
     43  H         3.8875324471   -1.2201032672   -0.5642689004
     44  C         0.4402583483    1.9732559418    1.3389340997
     45  H         1.4487483944    2.3472917537    1.5625731332
     46  H        -0.1122526543    1.9060501948    2.2935517786
     47  H        -0.0715941274    2.7385640887    0.7260450269
     48  C         5.8194830633    1.4812519070    0.6450561458
     49  H         6.8996661193    1.6797268170    0.6607506748
     50  H         5.4582612104    1.5180802656    1.6889985463
     51  H         5.3339445866    2.3154093096    0.1063262388

Z-matrix Print:
$molecule
0 1
C 
C  1 1.376407
C  1 1.480903 2 123.773346
H  3 1.096617 1 115.139855 2 -140.366137 0
C  3 1.373304 1 126.986263 2 45.379416 0
H  5 1.095852 3 118.335826 1 -0.560282 0
C  5 1.460739 3 126.420608 1 176.133970 0
C  7 1.388281 5 118.356986 3 -175.261759 0
H  8 1.098697 7 116.459002 5 -1.403032 0
C  8 1.440351 7 128.468379 5 177.429204 0
H  10 1.094007 8 118.285177 7 0.650768 0
C  10 1.381170 8 122.972372 7 -178.492499 0
H  12 1.098354 10 117.477263 8 -0.836193 0
C  12 1.454677 10 126.886487 8 178.740632 0
C  14 1.386368 12 118.535798 10 -179.806061 0
H  15 1.098332 14 116.770857 12 -0.188033 0
C  15 1.450800 14 128.184663 12 179.796833 0
H  17 1.095754 15 117.979543 14 -0.261096 0
C  17 1.363503 15 123.974719 14 179.714200 0
H  19 1.092185 17 121.834104 15 -179.989068 0
H  19 1.094710 17 121.685516 15 0.012618 0
C  7 1.523892 5 118.645877 3 3.628431 0
H  22 1.098622 7 112.545248 5 177.305046 0
H  22 1.105025 7 110.878896 5 56.611882 0
H  22 1.106039 7 111.072681 5 -62.002536 0
C  2 1.525479 1 123.919761 3 2.003883 0
H  26 1.099211 2 112.634572 1 17.779526 0
H  26 1.106167 2 110.172806 1 138.895074 0
H  26 1.108624 2 111.705047 1 -103.306632 0
C  14 1.525660 12 118.416415 10 -0.126268 0
H  30 1.098378 14 112.587630 12 179.441375 0
H  30 1.105284 14 110.970413 12 58.804227 0
H  30 1.105349 14 110.894170 12 -59.921375 0
C  2 1.532227 1 122.913633 3 -177.743744 0
H  34 1.107516 2 109.034054 1 -140.001751 0
H  34 1.112410 2 108.311255 1 106.155409 0
C  34 1.547342 2 114.500755 1 -16.184206 0
H  37 1.105350 34 110.076200 2 164.808053 0
H  37 1.105883 34 109.759580 2 -78.344488 0
C  37 1.543335 34 109.810547 2 42.873005 0
H  40 1.106110 37 110.935142 34 177.250796 0
H  40 1.108128 37 108.648807 34 60.265737 0
C  40 1.563088 37 112.915105 34 -60.182575 0
C  43 1.565671 40 107.319471 37 168.234091 0
H  44 1.101841 43 111.984862 40 174.999223 0
H  44 1.103477 43 110.935084 40 -64.358378 0
H  44 1.105156 43 109.775969 40 55.194259 0
C  43 1.567812 40 109.989443 37 -73.945657 0
H  48 1.102051 43 111.413025 40 58.641511 0
H  48 1.103676 43 111.387959 40 178.903426 0
H  48 1.105073 43 110.161699 40 -61.820136 0
$end

 
 --------------------------------------------------------------
 
                    Orbital Energies (a.u.)
 --------------------------------------------------------------
 
 Alpha MOs
 -- Occupied --
 -9.932  -9.932  -9.930  -9.922  -9.921  -9.919  -9.918  -9.917
 -9.917  -9.916  -9.915  -9.915  -9.914  -9.914  -9.914  -9.912
 -9.910  -9.907  -9.904  -9.903  -9.900  -0.753  -0.742  -0.729
 -0.697  -0.694  -0.682  -0.661  -0.639  -0.613  -0.608  -0.602
 -0.596  -0.592  -0.555  -0.528  -0.505  -0.491  -0.476  -0.468
 -0.457  -0.436  -0.418  -0.413  -0.403  -0.392  -0.387  -0.380
 -0.371  -0.363  -0.363  -0.362  -0.360  -0.349  -0.347  -0.341
 -0.340  -0.334  -0.331  -0.327  -0.318  -0.315  -0.311  -0.304
 -0.297  -0.295  -0.290  -0.287  -0.284  -0.280  -0.268  -0.264
 -0.257  -0.246  -0.238  -0.207  -0.181  -0.146
 -- Virtual --
 -0.078  -0.029   0.009   0.039   0.058   0.063   0.066   0.075
  0.081   0.084   0.089   0.095   0.100   0.102   0.108   0.112
  0.116   0.124   0.130   0.131   0.139   0.143   0.150   0.155
  0.157   0.160   0.163   0.167   0.167   0.173   0.181   0.184
  0.192   0.194   0.195   0.198   0.204   0.208   0.214   0.217
  0.219   0.233   0.242   0.248   0.250   0.256   0.274   0.305
  0.326   0.341   0.366   0.373   0.388   0.394   0.413   0.416
  0.438   0.476   0.482   0.485   0.488   0.495   0.499   0.504
  0.517   0.520   0.527   0.532   0.535   0.540   0.545   0.548
  0.557   0.565   0.569   0.575   0.583   0.599   0.602   0.609
  0.612   0.614   0.619   0.634   0.634   0.640   0.649   0.656
  0.658   0.665   0.681   0.690   0.693   0.699   0.706   0.713
  0.719   0.723   0.727   0.734   0.752   0.764   0.778   0.784
  0.793   0.795   0.801   0.802   0.810   0.829   0.832   0.842
  0.853   0.860   0.867   0.874   0.880   0.883   0.885   0.889
  0.901   0.911   0.916   0.917   0.921   0.925   0.933   0.935
  0.944   0.948   0.951   0.957   0.959   0.968   0.970   0.984
  0.992   1.018   1.024   1.041   1.058   1.067   1.074   1.085
  1.115   1.128   1.139   1.146   1.162   1.168   1.174   1.183
  1.210   1.249   1.251   1.282   1.289   1.307   1.329   1.348
  1.403   1.432   1.452   1.492   1.530   1.544   1.568   1.589
  1.636   1.739   1.793
 --------------------------------------------------------------
 
          Ground-State Mulliken Net Atomic Charges

     Atom                 Charge (a.u.)
  ----------------------------------------
      1 C                    -0.147425
      2 C                    -0.076127
      3 C                    -0.160733
      4 C                     0.152601
      5 C                    -0.118806
      6 C                    -0.160738
      7 H                     0.094777
      8 H                     0.086223
      9 H                     0.096270
     10 C                     0.084602
     11 H                     0.096978
     12 C                     0.095702
     13 C                    -0.275048
     14 C                    -0.218342
     15 H                     0.110427
     16 H                     0.121180
     17 C                    -0.206556
     18 H                     0.114388
     19 H                     0.101144
     20 C                     0.014532
     21 H                     0.096837
     22 H                     0.105691
     23 C                    -0.438428
     24 H                     0.140794
     25 H                     0.128117
     26 H                     0.116660
     27 C                    -0.368538
     28 H                     0.121754
     29 H                     0.113030
     30 H                     0.116525
     31 C                    -0.359705
     32 H                     0.119101
     33 H                     0.111922
     34 H                     0.108790
     35 C                     0.158934
     36 C                    -0.160904
     37 C                    -0.029164
     38 C                    -0.283481
     39 H                     0.095153
     40 H                     0.088101
     41 H                     0.106122
     42 H                     0.107731
     43 H                     0.088580
     44 C                    -0.451998
     45 H                     0.128103
     46 H                     0.138921
     47 H                     0.138739
     48 C                    -0.450742
     49 H                     0.128952
     50 H                     0.139387
     51 H                     0.139966
  ----------------------------------------
  Sum of atomic charges =    -0.000000

 -----------------------------------------------------------------
                    Cartesian Multipole Moments
 -----------------------------------------------------------------
    Charge (ESU x 10^10)
                -0.0000
    Dipole Moment (Debye)
         X      -0.7804      Y       0.4591      Z       0.2279
       Tot       0.9336
    Quadrupole Moments (Debye-Ang)
        XX    -126.6242     XY       4.0984     YY    -125.8316
        XZ       1.7183     YZ       4.2868     ZZ    -134.1365
    Octopole Moments (Debye-Ang^2)
       XXX       3.0140    XXY      13.5407    XYY       3.1986
       YYY      -8.3560    XXZ      -2.8323    XYZ      16.7142
       YYZ      -4.1808    XZZ     -12.5279    YZZ      -2.0906
       ZZZ      -5.7455
    Hexadecapole Moments (Debye-Ang^3)
      XXXX  -17262.4793   XXXY     209.5743   XXYY   -3155.1189
      XYYY      48.7117   YYYY   -1594.0382   XXXZ      79.6589
      XXYZ      81.9458   XYYZ      -3.8366   YYYZ     -47.1767
      XXZZ   -3186.2566   XYZZ      16.7528   YYZZ    -377.4409
      XZZZ      90.6430   YZZZ     -51.2554   ZZZZ    -700.5023
 -----------------------------------------------------------------
Archival summary:
1\1\cub-0-30.local\OPT\ProcedureUnspecified\6-31G\2130\c295_lal\WedOct3100:30:442018WedOct3100:30:442018\0\\#,OPT,ProcedureUnspecified,6-31G,\\0,1\C\C,1,1.37641\C,1,1.4809,2,123.773\H,3,1.09662,1,115.14,2,-140.366,0\C,3,1.3733,1,126.986,2,45.3794,0\H,5,1.09585,3,118.336,1,-0.560282,0\C,5,1.46074,3,126.421,1,176.134,0\C,7,1.38828,5,118.357,3,-175.262,0\H,8,1.0987,7,116.459,5,-1.40303,0\C,8,1.44035,7,128.468,5,177.429,0\H,10,1.09401,8,118.285,7,0.650768,0\C,10,1.38117,8,122.972,7,-178.492,0\H,12,1.09835,10,117.477,8,-0.836193,0\C,12,1.45468,10,126.886,8,178.741,0\C,14,1.38637,12,118.536,10,-179.806,0\H,15,1.09833,14,116.771,12,-0.188033,0\C,15,1.4508,14,128.185,12,179.797,0\H,17,1.09575,15,117.98,14,-0.261096,0\C,17,1.3635,15,123.975,14,179.714,0\H,19,1.09219,17,121.834,15,-179.989,0\H,19,1.09471,17,121.686,15,0.0126178,0\C,7,1.52389,5,118.646,3,3.62843,0\H,22,1.09862,7,112.545,5,177.305,0\H,22,1.10502,7,110.879,5,56.6119,0\H,22,1.10604,7,111.073,5,-62.0025,0\C,2,1.52548,1,123.92,3,2.00388,0\H,26,1.09921,2,112.635,1,17.7795,0\H,26,1.10617,2,110.173,1,138.895,0\H,26,1.10862,2,111.705,1,-103.307,0\C,14,1.52566,12,118.416,10,-0.126268,0\H,30,1.09838,14,112.588,12,179.441,0\H,30,1.10528,14,110.97,12,58.8042,0\H,30,1.10535,14,110.894,12,-59.9214,0\C,2,1.53223,1,122.914,3,-177.744,0\H,34,1.10752,2,109.034,1,-140.002,0\H,34,1.11241,2,108.311,1,106.155,0\C,34,1.54734,2,114.501,1,-16.1842,0\H,37,1.10535,34,110.076,2,164.808,0\H,37,1.10588,34,109.76,2,-78.3445,0\C,37,1.54333,34,109.811,2,42.873,0\H,40,1.10611,37,110.935,34,177.251,0\H,40,1.10813,37,108.649,34,60.2657,0\C,40,1.56309,37,112.915,34,-60.1826,0\C,43,1.56567,40,107.319,37,168.234,0\H,44,1.10184,43,111.985,40,174.999,0\H,44,1.10348,43,110.935,40,-64.3584,0\H,44,1.10516,43,109.776,40,55.1943,0\C,43,1.56781,40,109.989,37,-73.9457,0\H,48,1.10205,43,111.413,40,58.6415,0\H,48,1.10368,43,111.388,40,178.903,0\H,48,1.10507,43,110.162,40,-61.8201,0\\\@

 Total job time:  623.24s(wall), 2451.69s(cpu) 
 Wed Oct 31 00:30:44 2018

        *************************************************************
        *                                                           *
        *  Thank you very much for using Q-Chem.  Have a nice day.  *
        *                                                           *
        *************************************************************


