
Running Job 1 of 2 epox_ts_sto3g_gga2.in
qchem epox_ts_sto3g_gga2.in_16108.0 /scr/c295_lal/157331/qchem16108/ 1
/usr/software/qchem_511/exe/qcprog.exe_s epox_ts_sto3g_gga2.in_16108.0 /scr/c295_lal/157331/qchem16108/
Check license passed

                  Welcome to Q-Chem
     A Quantum Leap Into The Future Of Chemistry


 Q-Chem 5.1, Q-Chem, Inc., Pleasanton, CA (2018)

 Yihan Shao,  Zhengting Gan,  E. Epifanovsky,  A. T. B. Gilbert,  M. Wormit,  
 J. Kussmann,  A. W. Lange,  A. Behn,  Jia Deng,  Xintian Feng,  D. Ghosh,  
 M. Goldey,  P. R. Horn,  L. D. Jacobson,  I. Kaliman,  T. Kus,  A. Landau,  
 Jie Liu,  E. I. Proynov,  R. M. Richard,  R. P. Steele,  E. J. Sundstrom,  
 H. L. Woodcock III,  P. M. Zimmerman,  D. Zuev,  B. Albrecht,  E. Alguire,  
 S. A. Baeppler,  D. Barton,  Z. Benda,  Y. A. Bernard,  E. J. Berquist,  
 K. B. Bravaya,  H. Burton,  D. Casanova,  Chun-Min Chang,  Yunqing Chen,  
 A. Chien,  K. D. Closser,  M. P. Coons,  S. Coriani,  S. Dasgupta,  
 A. L. Dempwolff,  M. Diedenhofen,  Hainam Do,  R. G. Edgar,  Po-Tung Fang,  
 S. Faraji,  S. Fatehi,  Qingguo Feng,  K. D. Fenk,  J. Fosso-Tande,  
 Qinghui Ge,  A. Ghysels,  G. Gidofalvi,  J. Gomes,  J. Gonthier,  A. Gunina,  
 D. Hait,  M. W. D. Hanson-Heine,  P. H. P. Harbach,  A. W. Hauser,  
 J. E. Herr,  E. G. Hohenstein,  Z. C. Holden,  Kerwin Hui,  B. C. Huynh,  
 T.-C. Jagau,  Hyunjun Ji,  B. Kaduk,  K. Khistyaev,  Jaehoon Kim,  
 P. Klunzinger,  K. Koh,  D. Kosenkov,  L. Koulias,  T. Kowalczyk,  
 C. M. Krauter,  A. Kunitsa,  Ka Un Lao,  A. Laurent,  K. V. Lawler,  
 Joonho Lee,  D. Lefrancois,  S. Lehtola,  D. S. Levine,  Yi-Pei Li,  
 You-Sheng Lin,  Fenglai Liu,  E. Livshits,  A. Luenser,  P. Manohar,  
 E. Mansoor,  S. F. Manzer,  Shan-Ping Mao,  Yuezhi Mao,  N. Mardirossian,  
 A. V. Marenich,  T. Markovich,  L. A. Martinez-Martinez,  S. A. Maurer,  
 N. J. Mayhall,  S. C. McKenzie,  J.-M. Mewes,  A. F. Morrison,  
 J. W. Mullinax,  K. Nanda,  T. S. Nguyen-Beck,  R. Olivares-Amaya,  
 J. A. Parkhill,  T. M. Perrine,  F. Plasser,  P. Pokhilko,  S. Prager,  
 A. Prociuk,  E. Ramos,  D. R. Rehn,  F. Rob,  M. Schneider,  N. Sergueev,  
 S. M. Sharada,  S. Sharma,  D. W. Small,  T. Stauch,  T. Stein,  
 Yu-Chuan Su,  A. J. W. Thom,  A. Tkatchenko,  T. Tsuchimochi,  N. M. Tubman,  
 L. Vogt,  M. L. Vidal,  O. Vydrov,  M. A. Watson,  J. Wenzel,  
 M. de Wergifosse,  T. A. Wesolowski,  A. White,  J. Witte,  A. Yamada,  
 Jun Yang,  K. Yao,  S. Yeganeh,  S. R. Yost,  Zhi-Qiang You,  A. Zech,  
 Igor Ying Zhang,  Xing Zhang,  Yan Zhao,  Ying Zhu,  B. R. Brooks,  
 G. K. L. Chan,  C. J. Cramer,  M. S. Gordon,  W. J. Hehre,  A. Klamt,  
 M. W. Schmidt,  C. D. Sherrill,  D. G. Truhlar,  A. Aspuru-Guzik,  R. Baer,  
 A. T. Bell,  N. A. Besley,  Jeng-Da Chai,  A. E. DePrince, III,  
 R. A. DiStasio Jr.,  A. Dreuw,  B. D. Dunietz,  T. R. Furlani,  
 Chao-Ping Hsu,  Yousung Jung,  Jing Kong,  D. S. Lambrecht,  WanZhen Liang,  
 C. Ochsenfeld,  V. A. Rassolov,  L. V. Slipchenko,  J. E. Subotnik,  
 T. Van Voorhis,  J. M. Herbert,  A. I. Krylov,  P. M. W. Gill,  M. Head-Gordon

 Contributors to earlier versions of Q-Chem not listed above: 
 R. D. Adamson,  B. Austin,  J. Baker,  G. J. O. Beran,  K. Brandhorst,  
 S. T. Brown,  E. F. C. Byrd,  A. K. Chakraborty,  C.-L. Cheng,  
 Siu Hung Chien,  D. M. Chipman,  D. L. Crittenden,  H. Dachsel,  
 R. J. Doerksen,  A. D. Dutoi,  L. Fusti-Molnar,  W. A. Goddard III,  
 A. Golubeva-Zadorozhnaya,  S. R. Gwaltney,  G. Hawkins,  A. Heyden,  
 S. Hirata,  G. Kedziora,  F. J. Keil,  C. Kelley,  Jihan Kim,  R. A. King,  
 R. Z. Khaliullin,  P. P. Korambath,  W. Kurlancheek,  A. M. Lee,  M. S. Lee,  
 S. V. Levchenko,  Ching Yeh Lin,  D. Liotard,  R. C. Lochan,  I. Lotan,  
 P. E. Maslen,  N. Nair,  D. P. O'Neill,  D. Neuhauser,  E. Neuscamman,  
 C. M. Oana,  R. Olson,  B. Peters,  R. Peverati,  P. A. Pieniazek,  
 Y. M. Rhee,  J. Ritchie,  M. A. Rohrdanz,  E. Rosta,  N. J. Russ,  
 H. F. Schaefer III,  N. E. Schultz,  N. Shenvi,  A. C. Simmonett,  A. Sodt,  
 D. Stuck,  K. S. Thanthiriwatte,  V. Vanovschi,  Tao Wang,  A. Warshel,  
 C. F. Williams,  Q. Wu,  X. Xu,  W. Zhang

 Please cite Q-Chem as follows:
 Y. Shao et al., Mol. Phys. 113, 184-215 (2015)
 DOI: 10.1080/00268976.2014.952696

 Q-Chem 5.1.1 for Intel X86 EM64T Linux

 Parts of Q-Chem use Armadillo 8.300.2 (Tropical Shenanigans).
 http://arma.sourceforge.net/

 Q-Chem begins on Wed Nov 28 08:19:00 2018  

Host: cub-0-7.local
0

     Scratch files written to /scr/c295_lal/157331/qchem16108//
 Aug318 |scratch|qcdevops|jenkins|workspace|build_RNUM -1
Processing $rem in /usr/software/qchem_511/config/preferences.
 MEM_TOTAL  2000 
Input Ideriv = 2
Curr. Ideriv = -1
Max.  Ideriv = 2

Checking the input file for inconsistencies... 	...done.

--------------------------------------------------------------
User input:
--------------------------------------------------------------
$molecule
2 5
Fe        -1.04865        2.52535        0.29875
O         -0.31061        2.95662        1.46301
H          1.54308       -0.24691        2.82817
H          2.24339        1.75814       -2.51719
H          4.08773        0.92211       -0.58024
O         -0.87336        0.99200       -0.34168
H          0.55813        1.20635       -2.19645
H          3.88282       -0.45323        1.68606
C          1.46288       -1.30133        2.49422
C          1.60599        0.86997       -2.30513
H         -5.45207        0.16978        1.82876
C          2.17132        0.09433       -1.08623
H         -3.22224        0.23514        0.70447
H          2.06854       -1.92868        3.17988
H          0.41106       -1.64169        2.58281
C          3.71431       -0.00924       -1.08496
C          1.40898       -0.47677       -0.03190
C         -0.07848       -0.34818        0.10385
C          3.62217       -1.35514        1.08848
H         -0.47923       -0.63646        1.10376
C         -5.67949       -0.73965        1.23211
C          2.03446       -1.48994        1.02530
H          1.68370        0.20549       -3.19983
C         -3.46067       -0.65267        0.07959
H          4.07497        0.03810       -2.13757
C         -1.18036       -0.37753       -1.02995
C          4.28322       -1.25798       -0.32383
H          4.00396       -2.25034        1.63041
H          5.38255       -1.12908       -0.21486
H         -6.66064       -1.23179        1.41158
C         -4.78036       -1.24893        0.29222
C         -2.51512       -1.08146       -0.86815
H         -0.76969       -0.34283       -2.07371
C          1.66499       -2.95433        0.50175
H          4.10758       -2.18159       -0.91852
H          0.56730       -3.08474        0.44009
H          2.07475       -3.69572        1.21466
H         -5.06867       -2.13756       -0.30290
H          2.10907       -3.13304       -0.49572
C         -2.64149       -2.33186       -1.77308
H         -2.53093       -2.05632       -2.84404
H         -3.62079       -2.83039       -1.62911
H         -1.83598       -3.06076       -1.52605
$end

$rem
JOBTYPE         freq
EXCHANGE        B3LYP
BASIS           STO-3G
SCF_MAX_CYCLES  250
SYMMETRY        false
SYM_IGNORE      true
$end

--------------------------------------------------------------
 ----------------------------------------------------------------
             Standard Nuclear Orientation (Angstroms)
    I     Atom           X                Y                Z
 ----------------------------------------------------------------
    1      Fe     -1.0486500000     2.5253500000     0.2987500000
    2      O      -0.3106100000     2.9566200000     1.4630100000
    3      H       1.5430800000    -0.2469100000     2.8281700000
    4      H       2.2433900000     1.7581400000    -2.5171900000
    5      H       4.0877300000     0.9221100000    -0.5802400000
    6      O      -0.8733600000     0.9920000000    -0.3416800000
    7      H       0.5581300000     1.2063500000    -2.1964500000
    8      H       3.8828200000    -0.4532300000     1.6860600000
    9      C       1.4628800000    -1.3013300000     2.4942200000
   10      C       1.6059900000     0.8699700000    -2.3051300000
   11      H      -5.4520700000     0.1697800000     1.8287600000
   12      C       2.1713200000     0.0943300000    -1.0862300000
   13      H      -3.2222400000     0.2351400000     0.7044700000
   14      H       2.0685400000    -1.9286800000     3.1798800000
   15      H       0.4110600000    -1.6416900000     2.5828100000
   16      C       3.7143100000    -0.0092400000    -1.0849600000
   17      C       1.4089800000    -0.4767700000    -0.0319000000
   18      C      -0.0784800000    -0.3481800000     0.1038500000
   19      C       3.6221700000    -1.3551400000     1.0884800000
   20      H      -0.4792300000    -0.6364600000     1.1037600000
   21      C      -5.6794900000    -0.7396500000     1.2321100000
   22      C       2.0344600000    -1.4899400000     1.0253000000
   23      H       1.6837000000     0.2054900000    -3.1998300000
   24      C      -3.4606700000    -0.6526700000     0.0795900000
   25      H       4.0749700000     0.0381000000    -2.1375700000
   26      C      -1.1803600000    -0.3775300000    -1.0299500000
   27      C       4.2832200000    -1.2579800000    -0.3238300000
   28      H       4.0039600000    -2.2503400000     1.6304100000
   29      H       5.3825500000    -1.1290800000    -0.2148600000
   30      H      -6.6606400000    -1.2317900000     1.4115800000
   31      C      -4.7803600000    -1.2489300000     0.2922200000
   32      C      -2.5151200000    -1.0814600000    -0.8681500000
   33      H      -0.7696900000    -0.3428300000    -2.0737100000
   34      C       1.6649900000    -2.9543300000     0.5017500000
   35      H       4.1075800000    -2.1815900000    -0.9185200000
   36      H       0.5673000000    -3.0847400000     0.4400900000
   37      H       2.0747500000    -3.6957200000     1.2146600000
   38      H      -5.0686700000    -2.1375600000    -0.3029000000
   39      H       2.1090700000    -3.1330400000    -0.4957200000
   40      C      -2.6414900000    -2.3318600000    -1.7730800000
   41      H      -2.5309300000    -2.0563200000    -2.8440400000
   42      H      -3.6207900000    -2.8303900000    -1.6291100000
   43      H      -1.8359800000    -3.0607600000    -1.5260500000
 ----------------------------------------------------------------
 Nuclear Repulsion Energy =  1797.8693793500 hartrees
 There are       82 alpha and       78 beta electrons
 Requested basis set is STO-3G
 There are 65 shells and 132 basis functions

 Total QAlloc Memory Limit   2000 MB
 Mega-Array Size       188 MB
 MEM_STATIC part       192 MB
 A cutoff of  1.0D-11 yielded   1600 shell pairs
 There are      7279 function pairs (      7386 Cartesian)
 
 -------------------------------------------------------
 OpenMP Integral Computing Module                       
 Release: version 1.0, May 2013, Q-Chem Inc. Pittsburgh 
 -------------------------------------------------------
 Integral Job Info:
 Integral job number is                      11
 Integral operator is                         1
 short-range coefficients                     0
 long-range coefficients              100000000
 Omega coefficients                           0
 if combine SR and LR in K                    0
 Integral screening is                        0
 Integral computing path is                   2
 max size of driver memory is            800000
 size of driver memory is                593474
 size of scratch memory is             10861360
 max col of scratch BK array               1296
 max len of scratch array in speh3          155
 max len of scratch index in speh4           18
 max int batch size is                      520
 min int batch size is                       52
 fixed nKL is                                52
 max L of basis functions is                  2
 order of int derivative is                   0
 number of shells is                         65
 number of basis is                         133
 number of cartesian basis is               133
 number of contracted shell pairs          1600
 number of primitive shell pairs           8356
 maxK2 (contraction) of shell pair            9
 max number of K2 of shell pair               1
 max number of CS2 of shell pair            244
 max number of PS2 of shell pair            852
 mem total for path MDJ                  535286
 -------------------------------------------------------
 Smallest overlap matrix eigenvalue = 2.08E-01
 Guess from superposition of atomic densities
 Warning:  Energy on first SCF cycle will be non-variational
 SAD guess density has 162.000000 electrons

 -----------------------------------------------------------------------
  General SCF calculation program by
  Eric Jon Sundstrom, Paul Horn, Yuezhi Mao, Dmitri Zuev, Alec White,
  David Stuck, Shaama M.S., Shane Yost, Joonho Lee, David Small,
  Daniel Levine, Susi Lehtola, Hugh Burton, Evgeny Epifanovsky
 -----------------------------------------------------------------------
 Exchange:     0.2000 Hartree-Fock + 0.0800 Slater + 0.7200 B88
 Correlation:  0.1900 VWN1RPA + 0.8100 LYP
 Using SG-1 standard quadrature grid
 using 12 threads for integral computing
 -------------------------------------------------------
 OpenMP Integral computing Module                
 Release: version 1.0, May 2013, Q-Chem Inc. Pittsburgh 
 -------------------------------------------------------
 -------------------------------------------------------
 OpenMP BLAS3 based DFT computing Module                
 Release: version 1.0, May 2013, Q-Chem Inc. Pittsburgh 
 -------------------------------------------------------
 A unrestricted SCF calculation will be
 performed using DIIS
 SCF converges when DIIS error is below 1.0e-08
 ---------------------------------------
  Cycle       Energy         DIIS error
 ---------------------------------------
    1   -2012.2754886259      4.18e-02  
    2   -2014.1688926072      4.51e-03  
    3   -2008.2025486775      1.90e-02  
    4   -2014.3727211015      2.76e-03  
    5   -2014.3220619179      3.91e-03  
    6   -2014.4087023462      2.09e-03  
    7   -2014.4675340135      9.98e-04  
    8   -2014.4818784786      4.12e-04  
    9   -2014.4849566784      2.39e-04  
   10   -2014.4863871507      1.03e-04  
   11   -2014.4868992277      7.19e-05  
   12   -2014.4872735375      3.23e-05  
   13   -2014.4873002364      1.68e-05  
   14   -2014.4873061171      9.23e-06  
   15   -2014.4873083267      5.37e-06  
   16   -2014.4873093076      1.63e-06  
   17   -2014.4873094133      1.17e-06  
   18   -2014.4873094626      5.87e-07  
   19   -2014.4873094775      3.36e-07  
   20   -2014.4873094836      1.08e-07  
   21   -2014.4873094845      5.88e-08  
   22   -2014.4873094847      3.31e-08  
   23   -2014.4873094848      2.04e-08  
   24   -2014.4873094848      1.85e-08  
   25   -2014.4873094848      8.94e-09  Convergence criterion met
 ---------------------------------------
 SCF time:   CPU 187.75s  wall 16.00s 
<S^2> =          6.310487052
 SCF   energy in the final basis set =    -2014.4873094848
 Total energy in the final basis set =    -2014.4873094848
 
 --------------------------------------------------------------
 
                    Orbital Energies (a.u.)
 --------------------------------------------------------------
 
 Alpha MOs
 -- Occupied --
******* -30.185 -26.627 -26.620 -26.616 -19.331 -19.249 -10.451
-10.434 -10.377 -10.357 -10.346 -10.335 -10.334 -10.328 -10.305
-10.293 -10.292 -10.273 -10.239 -10.239 -10.238 -10.237  -4.059
 -2.869  -2.855  -2.847  -1.365  -1.233  -1.104  -1.083  -1.044
 -1.014  -0.998  -0.965  -0.946  -0.936  -0.901  -0.879  -0.875
 -0.861  -0.828  -0.804  -0.790  -0.777  -0.765  -0.732  -0.716
 -0.705  -0.704  -0.689  -0.688  -0.672  -0.665  -0.661  -0.659
 -0.655  -0.648  -0.647  -0.640  -0.636  -0.628  -0.624  -0.616
 -0.610  -0.608  -0.604  -0.598  -0.586  -0.581  -0.577  -0.574
 -0.559  -0.551  -0.544  -0.510  -0.509  -0.500  -0.494  -0.491
 -0.488  -0.468
 -- Virtual --
 -0.355  -0.304  -0.293  -0.238  -0.203  -0.189  -0.160  -0.150
 -0.056  -0.022   0.009   0.020   0.031   0.045   0.056   0.067
  0.083   0.088   0.097   0.104   0.111   0.119   0.123   0.134
  0.150   0.153   0.168   0.168   0.172   0.178   0.182   0.194
  0.202   0.214   0.221   0.232   0.232   0.239   0.247   0.251
  0.259   0.263   0.268   0.275   0.290   0.296   0.310   0.336
  0.367   0.381
 
 Beta MOs
 -- Occupied --
******* -30.149 -26.597 -26.588 -26.584 -19.331 -19.254 -10.451
-10.434 -10.375 -10.356 -10.344 -10.335 -10.329 -10.326 -10.305
-10.293 -10.292 -10.273 -10.239 -10.239 -10.238 -10.237  -3.866
 -2.691  -2.641  -2.617  -1.362  -1.239  -1.098  -1.078  -1.039
 -1.009  -0.996  -0.962  -0.941  -0.936  -0.898  -0.879  -0.873
 -0.856  -0.822  -0.802  -0.788  -0.773  -0.761  -0.722  -0.712
 -0.699  -0.690  -0.684  -0.661  -0.657  -0.654  -0.652  -0.644
 -0.639  -0.639  -0.630  -0.624  -0.621  -0.615  -0.608  -0.607
 -0.605  -0.601  -0.593  -0.581  -0.576  -0.559  -0.558  -0.549
 -0.542  -0.509  -0.508  -0.498  -0.456  -0.449
 -- Virtual --
 -0.414  -0.301  -0.275  -0.274  -0.272  -0.262  -0.243  -0.207
 -0.183  -0.171  -0.147  -0.132  -0.044  -0.010   0.011   0.022
  0.039   0.055   0.065   0.075   0.086   0.090   0.098   0.105
  0.112   0.121   0.130   0.136   0.151   0.155   0.170   0.170
  0.174   0.179   0.182   0.196   0.203   0.215   0.222   0.233
  0.233   0.240   0.248   0.253   0.262   0.265   0.269   0.275
  0.291   0.297   0.310   0.340   0.370   0.385
 --------------------------------------------------------------
 
          Ground-State Mulliken Net Atomic Charges

     Atom                 Charge (a.u.)    Spin (a.u.)
  --------------------------------------------------------
      1 Fe                    0.763641       3.344044
      2 O                    -0.208653      -0.256639
      3 H                     0.085162       0.000207
      4 H                     0.132368       0.006213
      5 H                     0.121877       0.011955
      6 O                    -0.260276       0.018011
      7 H                     0.078221       0.001042
      8 H                     0.088815       0.000175
      9 C                    -0.219139       0.004748
     10 C                    -0.228426      -0.008204
     11 H                     0.140403      -0.014712
     12 C                     0.088003       0.142679
     13 H                     0.109014      -0.002590
     14 H                     0.113348       0.000658
     15 H                     0.070516      -0.000124
     16 C                    -0.133331      -0.002405
     17 C                     0.005867       0.125329
     18 C                     0.044853      -0.006674
     19 C                    -0.127172       0.006154
     20 H                     0.151966       0.002072
     21 C                    -0.035144       0.330388
     22 C                     0.033857       0.002863
     23 H                     0.129310       0.007462
     24 C                    -0.025829       0.057875
     25 H                     0.117476       0.003288
     26 C                     0.063617       0.003567
     27 C                    -0.126653       0.005155
     28 H                     0.104306       0.001121
     29 H                     0.112980       0.001163
     30 H                     0.163357      -0.014947
     31 C                    -0.025800       0.013465
     32 C                     0.059797       0.188851
     33 H                     0.165479       0.004001
     34 C                    -0.213432       0.014593
     35 H                     0.091023      -0.000003
     36 H                     0.066624       0.000010
     37 H                     0.110027       0.000438
     38 H                     0.139621      -0.000689
     39 H                     0.089578      -0.000601
     40 C                    -0.217378      -0.008680
     41 H                     0.129610       0.008542
     42 H                     0.125475       0.000553
     43 H                     0.125041       0.009647
  --------------------------------------------------------
  Sum of atomic charges =     2.000000
  Sum of spin   charges =     4.000000

 -----------------------------------------------------------------
                    Cartesian Multipole Moments
 -----------------------------------------------------------------
    Charge (ESU x 10^10)
                 9.6064
    Dipole Moment (Debye)
         X      -9.0863      Y      -2.3284      Z      -1.7104
       Tot       9.5346
    Quadrupole Moments (Debye-Ang)
        XX     -14.9978     XY       8.9137     YY     -91.7894
        XZ     -10.5099     YZ      -0.0764     ZZ     -96.8704
    Octopole Moments (Debye-Ang^2)
       XXX    -261.0130    XXY     -62.5096    XYY     -12.8477
       YYY      78.7500    XXZ      46.7187    XYZ     -18.7365
       YYZ      -4.7981    XZZ       3.7656    YZZ      15.8388
       ZZZ     -20.0089
    Hexadecapole Moments (Debye-Ang^3)
      XXXX   -2811.8240   XXXY     491.2950   XXYY   -1039.2147
      XYYY     129.2738   YYYY   -1939.5747   XXXZ    -376.4493
      XXYZ     -25.8576   XYYZ      48.4184   YYYZ      10.3680
      XXZZ    -910.5584   XYZZ      55.6696   YYZZ    -502.0423
      XZZZ      27.6159   YZZZ       8.2454   ZZZZ   -1064.2300
 -----------------------------------------------------------------
 Calculating MO derivatives via CPSCF
 D1JvT checksum  = 1207440 11242.0944767234
 D1KAT checksum  = 3019632 622.4844934433
   1         3         129      0.521428    0.152661
   2         3         129      0.088284    0.041421
   3        15         117      0.009767    0.004171
   4        95          37      0.000994    0.000430
   5       123           9      0.000078    0.000035
   6       129           3      0.000006    0.000003
   7       132           0      0.000000    0.000000    Roots Converged
 Time for AOints: 117.9 s (CPU) 10.2 s (wall)
 ------------------------------------------------------------------------------
                     AOints        : Timing summary (seconds)
 ------------------------------------------------------------------------------
     job step          cpu (% of tot)      sys (% of tot)     wall (% of tot)
 ------------------------------------------------------------------------------
  cpscf_lag         0.6868E+04 (80.9)   0.9735E-01 (98.2)   0.6195E+03 (78.8)
  iterzp            0.1505E+04 (17.7)   0.1694E-02 ( 1.7)   0.1550E+03 (19.7)
  make_fx           0.0000E+00 ( 0.0)   0.0000E+00 ( 0.0)   0.0000E+00 ( 0.0)
  AOints            0.1179E+03 ( 1.4)   0.4400E-04 ( 0.0)   0.1023E+02 ( 1.3)
 ------------------------------------------------------------------------------
   Grand Totals     0.8492E+04          0.9911E-01          0.7858E+03
 ------------------------------------------------------------------------------
 Calculating analytic Hessian of the SCF energy
 Polarizability Matrix (a.u.)
            1           2           3
    1-566.5529456 -33.4951540  44.1788545
    2 -33.4951540-255.5828900 -11.8668960
    3  44.1788545 -11.8668960-132.3325529
 
 Direct stationary perturbation theory relativistic correction:
 
 rels  =       4.849803703571
 relv  =     -16.375210563520
 rel2e =       3.857622539026
 E_rel =      -7.667784320924
 
 Hessian of the SCF Energy
            1           2           3           4           5           6
    1   0.3015542   0.1029762   0.4317118  -0.2836889  -0.1357345  -0.4266707
    2   0.1029762   0.2886390   0.2832649  -0.1313120  -0.0925443  -0.2120753
    3   0.4317118   0.2832649   0.6991824  -0.4231215  -0.2193360  -0.6529434
    4  -0.2836889  -0.1313120  -0.4231215   0.2726911   0.1412795   0.4167186
    5  -0.1357345  -0.0925443  -0.2193360   0.1412795   0.0996593   0.2319583
    6  -0.4266707  -0.2120753  -0.6529434   0.4167186   0.2319583   0.6513248
    7  -0.0000903   0.0000825  -0.0001693   0.0000300  -0.0000354   0.0000545
    8  -0.0000018   0.0001387   0.0000368  -0.0000233  -0.0000117  -0.0000417
    9  -0.0001631   0.0000351  -0.0001625   0.0000691  -0.0000139   0.0000686
   10   0.0000781   0.0000770  -0.0003269   0.0000032  -0.0001517  -0.0000508
   11  -0.0000226   0.0002849   0.0002284  -0.0000179  -0.0000089  -0.0000177
   12   0.0000984   0.0001838   0.0001105  -0.0000085  -0.0000811  -0.0001483
   13  -0.0001218  -0.0002344  -0.0002153   0.0000448  -0.0000601   0.0000169
   14   0.0000393   0.0004965   0.0002098  -0.0000361  -0.0000342  -0.0000764
   15   0.0000417   0.0003048   0.0000952  -0.0000375  -0.0000742  -0.0000916
   16  -0.0134848   0.0101239  -0.0177600   0.0111042  -0.0068506   0.0092420
   17   0.0305671  -0.1543435  -0.0514155  -0.0108674  -0.0037573  -0.0200731
   18  -0.0074181  -0.0730957  -0.0426074   0.0058033  -0.0123151   0.0011075
   19  -0.0003104   0.0007019   0.0010229   0.0000064  -0.0000146  -0.0002603
   20  -0.0001304   0.0007391  -0.0000460   0.0000533  -0.0000204   0.0000334
   21   0.0013545  -0.0009966  -0.0012097  -0.0001644  -0.0001725  -0.0002502
   22  -0.0000505  -0.0002493  -0.0001421   0.0000410   0.0000387   0.0000672
   23   0.0000171   0.0001744   0.0000667  -0.0000212  -0.0000333  -0.0000387
   24  -0.0000396   0.0000891   0.0000071   0.0000082  -0.0000214  -0.0000098
   25   0.0001475  -0.0006687   0.0000232   0.0000031   0.0002786   0.0001688
   26   0.0000158   0.0005644   0.0002996  -0.0000322  -0.0000580  -0.0001000
   27   0.0001414   0.0000234   0.0001898  -0.0000882  -0.0000514  -0.0001239
   28  -0.0003775  -0.0009214   0.0005292  -0.0000603   0.0002226   0.0002432
   29   0.0003290  -0.0006911  -0.0003619  -0.0000341   0.0003666   0.0003447
   30   0.0003413   0.0009332  -0.0009255   0.0000990  -0.0001543   0.0002851
   31  -0.0001300   0.0002589   0.0001309  -0.0000183  -0.0000798  -0.0000362
   32  -0.0002084   0.0013092   0.0003605  -0.0000140  -0.0002125  -0.0000495
   33  -0.0001449   0.0005651   0.0002890  -0.0000252  -0.0001277  -0.0001005
   34  -0.0001463   0.0023436  -0.0001753  -0.0001256  -0.0011981  -0.0011199
   35  -0.0000247   0.0020337  -0.0001169   0.0000196  -0.0009251  -0.0010333
   36  -0.0003734  -0.0039060   0.0007035  -0.0000084   0.0011400   0.0010704
   37   0.0000510  -0.0004412   0.0001462  -0.0002337  -0.0000987  -0.0000361
   38   0.0000037   0.0006500   0.0000158  -0.0001380  -0.0001201  -0.0000188
   39   0.0011077   0.0003804   0.0000958  -0.0001136   0.0001474   0.0000132
   40   0.0000245   0.0000440   0.0000412  -0.0000263  -0.0000597  -0.0000633
   41  -0.0000672  -0.0001415  -0.0001475   0.0000394   0.0000183   0.0000675
   42  -0.0000271  -0.0001024  -0.0000889   0.0000295   0.0000304   0.0000549
   43   0.0000397  -0.0002324  -0.0000817  -0.0000175  -0.0000262  -0.0000215
   44   0.0000318  -0.0001815   0.0000347  -0.0000170   0.0000168  -0.0000153
   45  -0.0000541   0.0001194  -0.0000167   0.0000279  -0.0000211   0.0000163
   46  -0.0000246  -0.0003537  -0.0001818   0.0000481   0.0001099   0.0001537
   47  -0.0000279  -0.0007306  -0.0005971   0.0000150  -0.0002072  -0.0000121
   48  -0.0000838  -0.0000108  -0.0001913   0.0000738   0.0000104   0.0000321
   49  -0.0018957  -0.0008601  -0.0016524   0.0004931  -0.0009598   0.0005678
   50   0.0002206   0.0032721   0.0026706  -0.0004053   0.0010149   0.0008250
   51  -0.0002789   0.0010974  -0.0010815   0.0001398  -0.0006335  -0.0008247
   52  -0.0006520   0.0149793   0.0090259   0.0009131   0.0033892  -0.0002117
   53   0.0042886  -0.0380496  -0.0128989   0.0010146  -0.0036508  -0.0009275
   54   0.0028091  -0.0043383  -0.0036541  -0.0007300  -0.0007549   0.0010617
   55   0.0000315   0.0012872   0.0003246  -0.0000884  -0.0003856  -0.0003159
   56   0.0000599   0.0010565   0.0005135  -0.0000960  -0.0001026  -0.0001501
   57  -0.0000083  -0.0011952  -0.0004272   0.0000894   0.0003054   0.0002681
   58   0.0003844  -0.0013403  -0.0016486  -0.0000180   0.0000190   0.0000723
   59  -0.0002307   0.0024738   0.0038843  -0.0000751   0.0000419  -0.0005822
   60   0.0003724   0.0013775   0.0019943  -0.0000931   0.0002423  -0.0000684
   61   0.0010502  -0.0044321  -0.0013325   0.0001192   0.0012112   0.0005974
   62  -0.0008346   0.0030940   0.0009543  -0.0000790  -0.0008291  -0.0003877
   63  -0.0010530   0.0053822   0.0016040  -0.0001361  -0.0012722  -0.0005716
   64  -0.0001830  -0.0020560  -0.0008077   0.0001675   0.0003858   0.0002922
   65  -0.0000595  -0.0010418  -0.0007545   0.0000888   0.0000184   0.0000660
   66   0.0004197   0.0019247   0.0016729  -0.0002341   0.0004995  -0.0000403
   67   0.0000201   0.0003640   0.0002708   0.0000072  -0.0000021  -0.0001315
   68  -0.0000006  -0.0005064  -0.0000957  -0.0000143   0.0000617   0.0000823
   69   0.0000574  -0.0003140  -0.0000470   0.0000035   0.0001228   0.0000647
   70   0.0005391  -0.0054913  -0.0016084   0.0005598   0.0024075   0.0012637
   71  -0.0024469   0.0009379   0.0014192   0.0002101  -0.0003706   0.0000263
   72  -0.0018963   0.0036383   0.0014269  -0.0002369  -0.0017074  -0.0006359
   73   0.0000328  -0.0001664   0.0000141  -0.0000100   0.0000312   0.0000245
   74  -0.0000065   0.0002457   0.0000578  -0.0000046  -0.0000482  -0.0000644
   75   0.0000122  -0.0001605  -0.0000994   0.0000123   0.0000104   0.0000375
   76  -0.0016164   0.0102590   0.0041803  -0.0012244  -0.0002657   0.0017085
   77   0.0019639  -0.0195230  -0.0070823  -0.0004945  -0.0004809   0.0003090
   78  -0.0025017   0.0041618  -0.0012993   0.0015363  -0.0004860  -0.0008936
   79  -0.0000061  -0.0002422  -0.0000107   0.0000236   0.0000781   0.0000500
   80   0.0000374  -0.0005499  -0.0000562   0.0000221   0.0001990   0.0001521
   81  -0.0000077   0.0004469   0.0000208  -0.0000238  -0.0001861  -0.0001617
   82  -0.0000093  -0.0004494  -0.0001744   0.0000332   0.0000724   0.0000737
   83  -0.0000422  -0.0004185  -0.0001787   0.0000416   0.0000817   0.0000898
   84  -0.0000017   0.0000541   0.0000049   0.0000003  -0.0000189  -0.0000088
   85   0.0000025   0.0001025   0.0000199  -0.0000057  -0.0000343  -0.0000269
   86  -0.0000040   0.0001830   0.0000366  -0.0000138  -0.0000541  -0.0000467
   87  -0.0000018   0.0000336   0.0000048   0.0000033   0.0000016   0.0000093
   88   0.0002446  -0.0011599  -0.0003795   0.0000137   0.0002155   0.0000850
   89   0.0000839  -0.0006961  -0.0002204   0.0000207   0.0001236   0.0000513
   90   0.0000442   0.0000953   0.0000342  -0.0000174  -0.0000260  -0.0000235
   91  -0.0019144   0.0078352   0.0023994  -0.0003301  -0.0024284  -0.0012207
   92   0.0011753  -0.0029816  -0.0010606   0.0000277   0.0006112   0.0001502
   93   0.0016326  -0.0066745  -0.0019946   0.0001978   0.0017736   0.0007214
   94   0.0013907  -0.0037673  -0.0004159  -0.0006386  -0.0015345  -0.0016802
   95  -0.0004930   0.0014220   0.0001849   0.0000665   0.0008129   0.0010018
   96  -0.0000208  -0.0004482  -0.0006084   0.0001716   0.0013269   0.0009475
   97  -0.0003104   0.0008193  -0.0000223   0.0000312  -0.0000207  -0.0000090
   98  -0.0015957   0.0059102   0.0002484   0.0008157  -0.0000256   0.0003204
   99   0.0004294   0.0000935   0.0001866  -0.0000297  -0.0000632  -0.0002709
  100   0.0001533   0.0000331   0.0001971  -0.0000393   0.0000484  -0.0000028
  101   0.0000804  -0.0008138   0.0000014   0.0000219   0.0003892   0.0002488
  102   0.0000938  -0.0003882  -0.0000567   0.0000286   0.0001255   0.0001564
  103  -0.0000030   0.0000652   0.0000239  -0.0000018  -0.0000056  -0.0000058
  104  -0.0000109  -0.0000585  -0.0000179   0.0000071   0.0000152   0.0000128
  105   0.0000070  -0.0000872  -0.0000323   0.0000054   0.0000089   0.0000175
  106   0.0000004  -0.0000488  -0.0000282  -0.0000018  -0.0000103  -0.0000025
  107   0.0000283  -0.0000974  -0.0000570  -0.0000117  -0.0000199  -0.0000214
  108  -0.0000080   0.0001010   0.0000402  -0.0000078  -0.0000230  -0.0000209
  109  -0.0000165   0.0000354  -0.0000404   0.0000037  -0.0000244  -0.0000168
  110  -0.0000171   0.0000632   0.0000129  -0.0000094  -0.0000217  -0.0000333
  111  -0.0000512   0.0000798  -0.0000395   0.0000087  -0.0000497  -0.0000278
  112   0.0001185  -0.0006868  -0.0001536   0.0000120   0.0001004  -0.0000179
  113   0.0002411  -0.0005308  -0.0002387   0.0000268   0.0002180   0.0001461
  114  -0.0001753  -0.0006187  -0.0000637   0.0000028  -0.0000058  -0.0000487
  115  -0.0000214   0.0000722  -0.0000018   0.0000005  -0.0000271  -0.0000127
  116  -0.0000261  -0.0000177  -0.0000523   0.0000150  -0.0000105   0.0000222
  117  -0.0000127  -0.0000537  -0.0000437   0.0000087  -0.0000003   0.0000161
  118  -0.0008594   0.0023491   0.0001723   0.0002246   0.0002858   0.0006562
  119  -0.0002265   0.0001633   0.0002958  -0.0000632  -0.0000903  -0.0001568
  120   0.0003977   0.0000145  -0.0000540   0.0000192  -0.0001316  -0.0000757
  121   0.0000346   0.0001484   0.0000737  -0.0000200  -0.0000576  -0.0000373
  122   0.0000101   0.0003596  -0.0000014   0.0000313  -0.0000460   0.0000335
  123   0.0000976  -0.0005044  -0.0001652   0.0000083   0.0000515   0.0000235
  124   0.0000633  -0.0003291  -0.0000616   0.0000017   0.0000145  -0.0000237
  125  -0.0001203   0.0003120   0.0000329   0.0000167   0.0000434   0.0000782
  126  -0.0001913   0.0006229   0.0001013   0.0000385   0.0000167   0.0001157
  127  -0.0000481   0.0004851   0.0002042  -0.0000273  -0.0001231  -0.0000818
  128   0.0001625  -0.0006054  -0.0000943  -0.0000533  -0.0000085  -0.0000978
  129   0.0000137  -0.0000526   0.0000478  -0.0000277  -0.0000443  -0.0000721
            7           8           9          10          11          12
    1  -0.0000903  -0.0000018  -0.0001631   0.0000781  -0.0000226   0.0000984
    2   0.0000825   0.0001387   0.0000351   0.0000770   0.0002849   0.0001838
    3  -0.0001693   0.0000368  -0.0001625  -0.0003269   0.0002284   0.0001105
    4   0.0000300  -0.0000233   0.0000691   0.0000032  -0.0000179  -0.0000085
    5  -0.0000354  -0.0000117  -0.0000139  -0.0001517  -0.0000089  -0.0000811
    6   0.0000545  -0.0000417   0.0000686  -0.0000508  -0.0000177  -0.0001483
    7   0.0619495   0.0247257   0.0065267   0.0000016   0.0000004   0.0000026
    8   0.0247257   0.3680684   0.0944372   0.0000031  -0.0000030   0.0000118
    9   0.0065267   0.0944372   0.0909176   0.0000251  -0.0000086   0.0000105
   10   0.0000016   0.0000031   0.0000251   0.1719854   0.1513477  -0.0332519
   11   0.0000004  -0.0000030  -0.0000086   0.1513477   0.2697513  -0.0508314
   12   0.0000026   0.0000118   0.0000105  -0.0332519  -0.0508314   0.0705236
   13  -0.0000143   0.0000094  -0.0000002   0.0000995   0.0002838  -0.0002785
   14   0.0000069   0.0000112   0.0000285   0.0004785   0.0000473   0.0002201
   15   0.0000329  -0.0000111  -0.0000155  -0.0000198   0.0001317  -0.0000754
   16  -0.0000433  -0.0000439  -0.0000180  -0.0005997   0.0003516  -0.0002182
   17   0.0001502   0.0000036   0.0001370   0.0003506  -0.0000747   0.0001181
   18  -0.0000275  -0.0000511   0.0000758   0.0005698  -0.0003251  -0.0001337
   19  -0.0000025   0.0000011  -0.0000047  -0.0130054   0.0118143   0.0019245
   20   0.0000036  -0.0000006  -0.0000025  -0.0289367   0.0129750   0.0031873
   21  -0.0000072   0.0000022  -0.0000025   0.0043551  -0.0040209  -0.0011681
   22  -0.0002575   0.0002742   0.0003351  -0.0000127   0.0000273  -0.0000323
   23  -0.0001611   0.0000508   0.0002078   0.0000015   0.0000007   0.0000069
   24   0.0000926  -0.0000664   0.0002476  -0.0000101  -0.0000057   0.0000045
   25  -0.0682186  -0.0244155  -0.0083229   0.0000682   0.0001122  -0.0001354
   26  -0.0226513  -0.3537771  -0.0903268   0.0000938  -0.0000960   0.0002421
   27  -0.0073812  -0.0882278  -0.0885201  -0.0001942   0.0000479  -0.0001677
   28  -0.0000114  -0.0000015  -0.0000651  -0.1696706  -0.1434207   0.0352499
   29   0.0000506  -0.0000770  -0.0000651  -0.1402063  -0.2585170   0.0477443
   30   0.0000134  -0.0000354   0.0000252   0.0309839   0.0455929  -0.0629628
   31  -0.0000009   0.0000003  -0.0000023   0.0000058  -0.0000018  -0.0000002
   32   0.0000236   0.0000178  -0.0000075   0.0001030   0.0000120  -0.0000201
   33   0.0000122   0.0000077  -0.0000007   0.0000493   0.0000029  -0.0000119
   34  -0.0000534  -0.0000888   0.0002043   0.0087972  -0.0068453   0.0159448
   35  -0.0001351  -0.0000369  -0.0001131   0.0107229  -0.0113090   0.0259977
   36   0.0000957  -0.0000798  -0.0000040   0.0019980   0.0030807  -0.0119382
   37  -0.0000013   0.0000025  -0.0000184   0.0000293   0.0000027   0.0000064
   38   0.0000037   0.0000022   0.0000061  -0.0000174   0.0000043  -0.0000067
   39   0.0000038   0.0000078  -0.0000115   0.0000566   0.0000106  -0.0000047
   40   0.0030693  -0.0061778   0.0036439  -0.0000090  -0.0000327   0.0000524
   41   0.0207948  -0.0135241   0.0235900   0.0000294   0.0000044  -0.0000015
   42   0.0085942  -0.0095519   0.0093360  -0.0000220   0.0000350  -0.0000809
   43   0.0021991   0.0061989   0.0002450  -0.0000198   0.0000111  -0.0000080
   44  -0.0352509  -0.0045881   0.0041156  -0.0000019  -0.0000014  -0.0000024
   45  -0.0116036  -0.0010464   0.0007765   0.0000069  -0.0000050  -0.0000128
   46   0.0000191   0.0000122   0.0000419  -0.0005088  -0.0007926   0.0010639
   47  -0.0000539   0.0000318   0.0000296   0.0004394   0.0020678  -0.0021953
   48   0.0000377   0.0000549  -0.0000103  -0.0015125  -0.0005010   0.0009375
   49   0.0003520  -0.0001152  -0.0001068   0.0004773   0.0010344  -0.0037859
   50  -0.0000170   0.0010746  -0.0012163   0.0010569  -0.0005332   0.0011855
   51  -0.0007966   0.0006134   0.0025813  -0.0044426  -0.0004933  -0.0014063
   52   0.0001865   0.0001277  -0.0001061  -0.0006496   0.0000935   0.0003239
   53  -0.0000395  -0.0000163  -0.0000162  -0.0004432  -0.0000061   0.0000863
   54   0.0004186   0.0000052  -0.0001101  -0.0006557  -0.0000289   0.0001725
   55   0.0011607  -0.0000360  -0.0014400   0.0001265  -0.0001127   0.0001173
   56   0.0006456   0.0003178   0.0000745  -0.0000814   0.0000972  -0.0001354
   57   0.0000306   0.0004562   0.0006183   0.0000367   0.0000237   0.0000941
   58  -0.0001031   0.0000073  -0.0001510   0.0000048  -0.0000234   0.0000626
   59  -0.0003815  -0.0001027   0.0000935   0.0000707   0.0000221  -0.0000040
   60  -0.0000966  -0.0000135  -0.0002439   0.0001548   0.0000245  -0.0000327
   61  -0.0001267  -0.0000996   0.0000573  -0.0005902  -0.0000218   0.0000879
   62   0.0000821   0.0000624  -0.0000357   0.0003334   0.0000247  -0.0000696
   63   0.0001430   0.0001125  -0.0000657   0.0006617   0.0000208  -0.0000933
   64   0.0001027  -0.0003262  -0.0031209   0.0001633  -0.0001676   0.0005840
   65   0.0123199   0.0009219  -0.0297460  -0.0003601   0.0003728  -0.0004012
   66   0.0020024   0.0031549  -0.0102743  -0.0002153   0.0003160  -0.0009033
   67   0.0000029  -0.0000060   0.0000118   0.0017768  -0.0136061  -0.0184254
   68  -0.0000075   0.0000100  -0.0000210   0.0050848  -0.0145344  -0.0254699
   69   0.0000118  -0.0000131  -0.0000067   0.0016510   0.0069207   0.0071361
   70  -0.0001990  -0.0001703   0.0001697  -0.0009514   0.0000412   0.0001455
   71   0.0000253   0.0000294  -0.0000207   0.0001594  -0.0000188  -0.0000061
   72   0.0001523   0.0001325  -0.0001245   0.0005780   0.0000646  -0.0001373
   73  -0.0000088  -0.0000015  -0.0000081   0.0000798   0.0002301   0.0000068
   74   0.0000114  -0.0000015   0.0000021   0.0003172  -0.0003848   0.0000860
   75  -0.0000239  -0.0000026   0.0000146   0.0001275   0.0002093   0.0001300
   76   0.0000169   0.0000519  -0.0000184   0.0009958   0.0002321   0.0001480
   77   0.0000394   0.0000592  -0.0001555  -0.0000839   0.0002131   0.0000039
   78   0.0000135   0.0000234   0.0001406   0.0000633  -0.0002766   0.0002121
   79  -0.0001345  -0.0000523  -0.0000311   0.0001746  -0.0002433   0.0004268
   80  -0.0001709   0.0001038   0.0000617   0.0000113  -0.0001676   0.0002735
   81  -0.0001384  -0.0000482   0.0000953   0.0001970   0.0001292  -0.0004040
   82  -0.0000601  -0.0001204   0.0000345  -0.0000241   0.0000461  -0.0000242
   83  -0.0000561   0.0000189   0.0000577  -0.0000076  -0.0000123   0.0000427
   84   0.0000951   0.0000099  -0.0000564   0.0000399  -0.0000475   0.0000185
   85  -0.0000084   0.0000017   0.0000193  -0.0000255   0.0000305  -0.0000562
   86   0.0000256   0.0000020   0.0000077  -0.0000205   0.0001267  -0.0001578
   87   0.0000363   0.0000227  -0.0000111   0.0000288  -0.0000784   0.0001171
   88  -0.0000276  -0.0000184   0.0000056  -0.0001146  -0.0000064   0.0000220
   89  -0.0000201  -0.0000139   0.0000074  -0.0000721  -0.0000113   0.0000172
   90   0.0000090   0.0000056  -0.0000043   0.0000318   0.0000072  -0.0000072
   91   0.0002371   0.0001877  -0.0001296   0.0010223   0.0000327  -0.0001795
   92  -0.0000452  -0.0000323   0.0000071  -0.0001885  -0.0000123   0.0000339
   93  -0.0001800  -0.0001404   0.0000912  -0.0007625  -0.0000473   0.0001366
   94   0.0001042   0.0000849  -0.0001863   0.0001260  -0.0000383  -0.0001376
   95  -0.0001070  -0.0000999   0.0000196  -0.0005169  -0.0000489   0.0000286
   96  -0.0001276  -0.0001226   0.0001137  -0.0003366  -0.0000829   0.0001404
   97   0.0000119   0.0000052   0.0000381   0.0002605  -0.0002949   0.0002347
   98  -0.0000024  -0.0000068  -0.0000137   0.0003271  -0.0003540   0.0000556
   99  -0.0000028  -0.0000002   0.0000053   0.0001080   0.0000460  -0.0001149
  100  -0.0005749   0.0001046   0.0028331   0.0000541   0.0000025  -0.0000250
  101  -0.0001697   0.0008131  -0.0002177   0.0000701   0.0000582  -0.0001479
  102   0.0019348   0.0002085  -0.0054658   0.0000435  -0.0000527  -0.0000178
  103   0.0000355  -0.0000200  -0.0000411  -0.0000227  -0.0000331   0.0000189
  104   0.0000218  -0.0000049  -0.0000091   0.0000003   0.0000202  -0.0000348
  105  -0.0000529   0.0000506   0.0000591  -0.0000224  -0.0000576   0.0000595
  106   0.0001054   0.0000430   0.0000666  -0.0000178   0.0000092   0.0000010
  107   0.0000599   0.0000632   0.0002658   0.0000042   0.0000020   0.0000145
  108   0.0001025   0.0000858   0.0000565  -0.0000103  -0.0000046   0.0000011
  109  -0.0000610  -0.0000782   0.0000699   0.0000027  -0.0000026   0.0000296
  110  -0.0002304   0.0003026   0.0002845  -0.0000104   0.0000054   0.0000017
  111   0.0000208   0.0000842   0.0000636  -0.0000131   0.0000177   0.0000090
  112  -0.0000098  -0.0000086   0.0000071  -0.0000656  -0.0000041   0.0000054
  113  -0.0000177  -0.0000125   0.0000034  -0.0000601  -0.0000004   0.0000150
  114  -0.0000151  -0.0000143   0.0000074  -0.0000938  -0.0000072   0.0000070
  115   0.0004282  -0.0000340  -0.0005021  -0.0000009  -0.0000203   0.0000100
  116   0.0004726   0.0001971  -0.0014896   0.0000097  -0.0000035   0.0000012
  117   0.0001580  -0.0000882  -0.0001960  -0.0000027  -0.0000083   0.0000020
  118  -0.0000249  -0.0000341   0.0000265  -0.0002258   0.0000005  -0.0000013
  119   0.0000039   0.0000048   0.0000149   0.0000213   0.0000067   0.0000019
  120   0.0000213   0.0000235  -0.0000196   0.0002184  -0.0000097  -0.0000002
  121   0.0000084   0.0000107  -0.0000026   0.0000806   0.0000056   0.0000030
  122   0.0000138   0.0000128  -0.0000088   0.0000758  -0.0000007  -0.0000070
  123  -0.0000116  -0.0000080  -0.0000004  -0.0000470  -0.0000037   0.0000092
  124  -0.0000020  -0.0000018  -0.0000034  -0.0000159  -0.0000045   0.0000025
  125  -0.0000063  -0.0000041   0.0000083  -0.0000340   0.0000012   0.0000033
  126   0.0000046   0.0000026   0.0000031  -0.0000016   0.0000035  -0.0000030
  127   0.0000131   0.0000232   0.0000113   0.0001167   0.0000031  -0.0000048
  128  -0.0000044  -0.0000046  -0.0000073   0.0000039  -0.0000000   0.0000096
  129   0.0000136   0.0000129  -0.0000019   0.0000068   0.0000006  -0.0000071
           13          14          15          16          17          18
    1  -0.0001218   0.0000393   0.0000417  -0.0134848   0.0305671  -0.0074181
    2  -0.0002344   0.0004965   0.0003048   0.0101239  -0.1543435  -0.0730957
    3  -0.0002153   0.0002098   0.0000952  -0.0177600  -0.0514155  -0.0426074
    4   0.0000448  -0.0000361  -0.0000375   0.0111042  -0.0108674   0.0058033
    5  -0.0000601  -0.0000342  -0.0000742  -0.0068506  -0.0037573  -0.0123151
    6   0.0000169  -0.0000764  -0.0000916   0.0092420  -0.0200731   0.0011075
    7  -0.0000143   0.0000069   0.0000329  -0.0000433   0.0001502  -0.0000275
    8   0.0000094   0.0000112  -0.0000111  -0.0000439   0.0000036  -0.0000511
    9  -0.0000002   0.0000285  -0.0000155  -0.0000180   0.0001370   0.0000758
   10   0.0000995   0.0004785  -0.0000198  -0.0005997   0.0003506   0.0005698
   11   0.0002838   0.0000473   0.0001317   0.0003516  -0.0000747  -0.0003251
   12  -0.0002785   0.0002201  -0.0000754  -0.0002182   0.0001181  -0.0001337
   13   0.0953990   0.0860925   0.0492171  -0.0007003   0.0008538   0.0000656
   14   0.0860925   0.2654233   0.1155761   0.0001557  -0.0005665   0.0000731
   15   0.0492171   0.1155761   0.1200446  -0.0002937   0.0001592  -0.0000546
   16  -0.0007003   0.0001557  -0.0002937   0.0746563  -0.0027027   0.0117539
   17   0.0008538  -0.0005665   0.0001592  -0.0027027   0.3440049   0.1198669
   18   0.0000656   0.0000731  -0.0000546   0.0117539   0.1198669   0.1445314
   19   0.0000785  -0.0000670   0.0000093  -0.0018636  -0.0008612   0.0006803
   20   0.0006136  -0.0003798   0.0001917   0.0012390  -0.0001920  -0.0011580
   21  -0.0000701   0.0000143  -0.0000247  -0.0005821  -0.0008945   0.0009508
   22   0.0002252  -0.0001996  -0.0001126   0.0000177   0.0000915   0.0001178
   23  -0.0001065   0.0002203  -0.0000121  -0.0000057  -0.0000381  -0.0000587
   24   0.0000130   0.0002397  -0.0003236  -0.0000407   0.0000899  -0.0000011
   25   0.0000886  -0.0000706   0.0000163   0.0011232  -0.0012266   0.0003666
   26  -0.0001360   0.0001079   0.0000199  -0.0001569   0.0001772   0.0000191
   27   0.0000786  -0.0000572  -0.0001691  -0.0000206   0.0001141   0.0000622
   28  -0.0004820   0.0002053   0.0000574   0.0005546   0.0012170   0.0000184
   29   0.0010747  -0.0011311   0.0005727   0.0021080  -0.0024312   0.0012406
   30   0.0021938   0.0001831   0.0004090   0.0029680   0.0001857  -0.0005974
   31   0.0000021   0.0000095   0.0000078   0.0000862  -0.0000639  -0.0000005
   32   0.0000162   0.0001495   0.0001092   0.0004499  -0.0007386   0.0000091
   33   0.0000102   0.0000762   0.0000561   0.0001868  -0.0001707  -0.0000378
   34  -0.0211203  -0.0077403  -0.0021315  -0.0020770   0.0033521   0.0020602
   35  -0.0292215   0.0001050   0.0010750  -0.0044656   0.0030404  -0.0001204
   36  -0.0162306   0.0043016   0.0009232   0.0010163   0.0031168  -0.0046167
   37   0.0000049   0.0000298   0.0000309   0.0003386  -0.0005439  -0.0003003
   38  -0.0000038   0.0000107  -0.0000004  -0.0013656  -0.0003029   0.0003333
   39   0.0000038   0.0000712   0.0000586  -0.0004393   0.0005040   0.0005490
   40  -0.0000141  -0.0000176  -0.0000003  -0.0001635   0.0003182  -0.0001801
   41   0.0000206  -0.0000008   0.0000048   0.0000896   0.0000075   0.0000975
   42   0.0000305  -0.0000116  -0.0000091   0.0001392  -0.0001678   0.0000267
   43   0.0000187  -0.0000360  -0.0000582   0.0000571   0.0003633  -0.0002779
   44   0.0000214  -0.0000110  -0.0000254   0.0000113  -0.0000110  -0.0000403
   45  -0.0000249   0.0000318   0.0000495  -0.0000382  -0.0000631  -0.0000522
   46  -0.0829936  -0.0752003  -0.0390456   0.0007837  -0.0003373  -0.0000497
   47  -0.0883493  -0.2426462  -0.1083310  -0.0017950   0.0027053  -0.0001840
   48  -0.0465367  -0.1114938  -0.1124790  -0.0007517  -0.0002778   0.0005261
   49  -0.0021717   0.0037951   0.0022217  -0.0220863   0.0274439  -0.0146066
   50   0.0018719   0.0020719  -0.0006474   0.0296249  -0.0074885  -0.0020214
   51  -0.0001864  -0.0033992  -0.0022784  -0.0110112   0.0004954   0.0005076
   52   0.0015576  -0.0012307  -0.0000886  -0.0202758   0.0039047   0.0142353
   53   0.0009393  -0.0001645  -0.0007806  -0.0147643  -0.0288392   0.0029458
   54   0.0014122  -0.0006119  -0.0005097  -0.0089135   0.0542328  -0.0407254
   55  -0.0005023   0.0000357   0.0006457   0.0000216   0.0006164  -0.0003938
   56  -0.0005240   0.0018961   0.0000048   0.0018103  -0.0005771   0.0003877
   57   0.0003708  -0.0018113   0.0012318  -0.0003413  -0.0006011   0.0003214
   58  -0.0002418  -0.0000205   0.0000419  -0.0011114   0.0063436  -0.0087370
   59  -0.0004219   0.0001160   0.0001815  -0.0001247  -0.0141747   0.0240987
   60  -0.0001711   0.0002151   0.0001955  -0.0019454  -0.0050252   0.0022331
   61  -0.0001220  -0.0007366  -0.0005626  -0.0036216  -0.0011556  -0.0019229
   62   0.0000677   0.0004623   0.0003480   0.0019872   0.0003933   0.0007916
   63   0.0001378   0.0008366   0.0006419   0.0039995   0.0001118   0.0017121
   64  -0.0001432  -0.0000551  -0.0001135  -0.0027607  -0.0017767   0.0008944
   65   0.0001887  -0.0007765   0.0002405  -0.0041376   0.0010807  -0.0008340
   66  -0.0009325   0.0004987   0.0001374   0.0088445  -0.0086505   0.0022728
   67   0.0005037   0.0003650  -0.0000653  -0.0002502  -0.0014099   0.0003396
   68  -0.0003750  -0.0000042   0.0000368  -0.0003076   0.0008382  -0.0003703
   69   0.0004629  -0.0004200   0.0002399   0.0004872  -0.0006051   0.0002308
   70  -0.0002437  -0.0011302  -0.0009331  -0.0032461  -0.0042483  -0.0019243
   71   0.0000323   0.0002260   0.0001830   0.0034490  -0.0000798   0.0003283
   72   0.0001241   0.0008302   0.0006682   0.0027379  -0.0004862  -0.0004342
   73   0.0056406  -0.0004691  -0.0141011   0.0003175   0.0000126  -0.0000841
   74   0.0107464   0.0010308  -0.0293707  -0.0002111  -0.0001372   0.0000232
   75   0.0069098   0.0051616  -0.0129604   0.0001345   0.0001095   0.0000096
   76   0.0001221   0.0007973   0.0006984  -0.0189126  -0.0575249   0.0034827
   77  -0.0000359   0.0003926   0.0003270   0.0112209  -0.1060746  -0.0186037
   78   0.0000242   0.0000640   0.0001174   0.0189380  -0.0861479  -0.0615286
   79   0.0039913  -0.0076694   0.0043188   0.0001035  -0.0002887   0.0001276
   80   0.0141104  -0.0260584   0.0189883   0.0007451  -0.0006946   0.0001599
   81   0.0055074  -0.0120085   0.0057481  -0.0009448   0.0005953  -0.0001721
   82   0.0000662   0.0001246  -0.0001559  -0.0004535   0.0000254  -0.0000545
   83   0.0001342  -0.0000369  -0.0000331  -0.0003042   0.0001823  -0.0000135
   84  -0.0000685  -0.0001281   0.0001264   0.0000721   0.0000220   0.0000197
   85   0.0009423  -0.0006987   0.0004645  -0.0000152   0.0000331  -0.0000280
   86   0.0003391   0.0022089  -0.0006613  -0.0001713   0.0001623  -0.0000583
   87   0.0004742  -0.0007307   0.0008472   0.0001200  -0.0000444   0.0000260
   88  -0.0000223  -0.0001596  -0.0001168  -0.0004886   0.0005455  -0.0000203
   89  -0.0000103  -0.0001069  -0.0000790  -0.0002963   0.0003765   0.0000006
   90   0.0000035   0.0000430   0.0000328   0.0001125  -0.0000711   0.0000439
   91   0.0002409   0.0013402   0.0010414   0.0060654   0.0035059   0.0031263
   92  -0.0000374  -0.0002875  -0.0002063  -0.0015645   0.0020429   0.0004066
   93  -0.0001506  -0.0010193  -0.0007763  -0.0053989   0.0000867  -0.0013516
   94   0.0001915   0.0003507   0.0003369   0.0025374   0.0093186  -0.0044194
   95  -0.0000358  -0.0006645  -0.0004927  -0.0298077  -0.0179174  -0.0083174
   96  -0.0002296  -0.0007351  -0.0005965  -0.0140998  -0.0116984  -0.0049563
   97  -0.0000597  -0.0000180  -0.0000198  -0.0011853  -0.0013941  -0.0014757
   98   0.0000131  -0.0000161   0.0000036   0.0051274  -0.0151393  -0.0339859
   99  -0.0000061  -0.0000385  -0.0000343  -0.0020860   0.0008636  -0.0019564
  100   0.0000982   0.0001210   0.0000172   0.0007915  -0.0009913  -0.0000015
  101  -0.0002459   0.0000935  -0.0000018   0.0017691  -0.0021023   0.0007479
  102   0.0001934   0.0001044   0.0000348   0.0009035  -0.0009110  -0.0000450
  103  -0.0003173   0.0017639  -0.0012118   0.0000278  -0.0000683  -0.0000151
  104   0.0023941  -0.0022836   0.0023094  -0.0000109  -0.0000124   0.0000106
  105  -0.0021552   0.0036655  -0.0013051   0.0000898   0.0000193  -0.0000011
  106   0.0000378  -0.0000748  -0.0000064   0.0001081   0.0002421   0.0000017
  107   0.0000220   0.0000160  -0.0000504   0.0000471   0.0002160   0.0000786
  108  -0.0000066   0.0000318   0.0000085  -0.0000148  -0.0000060  -0.0001292
  109   0.0000034  -0.0000539  -0.0000338  -0.0000213   0.0001707   0.0001385
  110  -0.0000733   0.0000046   0.0000125  -0.0000928   0.0001882   0.0000587
  111   0.0000093  -0.0000321  -0.0000309  -0.0004087   0.0004322  -0.0000371
  112  -0.0000116  -0.0000808  -0.0000611  -0.0004318   0.0007392   0.0000691
  113  -0.0000136  -0.0000831  -0.0000610  -0.0004724  -0.0004690  -0.0001746
  114  -0.0000141  -0.0001089  -0.0000842  -0.0003794   0.0006047  -0.0002027
  115  -0.0000423   0.0000949   0.0000071  -0.0000951   0.0001113  -0.0001113
  116   0.0000370   0.0001124   0.0000236  -0.0000614   0.0001378  -0.0000543
  117  -0.0000010   0.0000448   0.0000037  -0.0000879   0.0001681  -0.0000502
  118  -0.0000502  -0.0002253  -0.0001893  -0.0067248  -0.0063521  -0.0033740
  119  -0.0000022   0.0000292   0.0000098  -0.0002240   0.0004699  -0.0000011
  120   0.0000180   0.0002076   0.0001754   0.0052394   0.0057130   0.0047088
  121   0.0000031   0.0000742   0.0000615   0.0004022   0.0001864   0.0005165
  122   0.0000052   0.0000732   0.0000624   0.0005290   0.0001559   0.0006426
  123  -0.0000006  -0.0000645  -0.0000441   0.0001058   0.0009135   0.0004955
  124  -0.0000010  -0.0000190  -0.0000132   0.0008466   0.0011904   0.0006252
  125  -0.0000073  -0.0000347  -0.0000297  -0.0011730  -0.0010545  -0.0007598
  126  -0.0000065  -0.0000004  -0.0000001  -0.0013772  -0.0016280  -0.0005620
  127   0.0000153   0.0001293   0.0001029   0.0006692   0.0001590   0.0004297
  128   0.0000071  -0.0000185  -0.0000084   0.0002707   0.0010336   0.0002226
  129   0.0000082   0.0000187   0.0000175   0.0000804   0.0002777  -0.0001580
           19          20          21          22          23          24
    1  -0.0003104  -0.0001304   0.0013545  -0.0000505   0.0000171  -0.0000396
    2   0.0007019   0.0007391  -0.0009966  -0.0002493   0.0001744   0.0000891
    3   0.0010229  -0.0000460  -0.0012097  -0.0001421   0.0000667   0.0000071
    4   0.0000064   0.0000533  -0.0001644   0.0000410  -0.0000212   0.0000082
    5  -0.0000146  -0.0000204  -0.0001725   0.0000387  -0.0000333  -0.0000214
    6  -0.0002603   0.0000334  -0.0002502   0.0000672  -0.0000387  -0.0000098
    7  -0.0000025   0.0000036  -0.0000072  -0.0002575  -0.0001611   0.0000926
    8   0.0000011  -0.0000006   0.0000022   0.0002742   0.0000508  -0.0000664
    9  -0.0000047  -0.0000025  -0.0000025   0.0003351   0.0002078   0.0002476
   10  -0.0130054  -0.0289367   0.0043551  -0.0000127   0.0000015  -0.0000101
   11   0.0118143   0.0129750  -0.0040209   0.0000273   0.0000007  -0.0000057
   12   0.0019245   0.0031873  -0.0011681  -0.0000323   0.0000069   0.0000045
   13   0.0000785   0.0006136  -0.0000701   0.0002252  -0.0001065   0.0000130
   14  -0.0000670  -0.0003798   0.0000143  -0.0001996   0.0002203   0.0002397
   15   0.0000093   0.0001917  -0.0000247  -0.0001126  -0.0000121  -0.0003236
   16  -0.0018636   0.0012390  -0.0005821   0.0000177  -0.0000057  -0.0000407
   17  -0.0008612  -0.0001920  -0.0008945   0.0000915  -0.0000381   0.0000899
   18   0.0006803  -0.0011580   0.0009508   0.0001178  -0.0000587  -0.0000011
   19   0.3731174  -0.0941281  -0.0390054   0.0000189   0.0000013  -0.0000048
   20  -0.0941281   0.0895362   0.0093963  -0.0000139   0.0000054  -0.0000032
   21  -0.0390054   0.0093963   0.0622335   0.0000322  -0.0000024  -0.0000158
   22   0.0000189  -0.0000139   0.0000322   0.0833701   0.0632524   0.0378973
   23   0.0000013   0.0000054  -0.0000024   0.0632524   0.2793264   0.1419519
   24  -0.0000048  -0.0000032  -0.0000158   0.0378973   0.1419519   0.1575591
   25   0.0000272  -0.0000577   0.0001136   0.0014085   0.0008553   0.0010662
   26  -0.0000145   0.0000485  -0.0000318  -0.0005631   0.0006377   0.0009554
   27   0.0000260  -0.0000234  -0.0000136  -0.0012672  -0.0001388   0.0006299
   28  -0.3526465   0.0908266   0.0351237   0.0001991  -0.0000098  -0.0000482
   29   0.0910308  -0.0928379  -0.0104174   0.0000482  -0.0000636  -0.0000424
   30   0.0338476  -0.0090771  -0.0628812   0.0000463  -0.0000352  -0.0000301
   31   0.0000025  -0.0000108  -0.0000019  -0.0000023   0.0000011   0.0000028
   32   0.0000037  -0.0000386  -0.0000062  -0.0000286   0.0000197   0.0000347
   33  -0.0000003  -0.0000249  -0.0000084  -0.0000153   0.0000101   0.0000194
   34  -0.0059753   0.0148518  -0.0320968  -0.0007899   0.0003864  -0.0002318
   35  -0.0004446  -0.0039929   0.0072642  -0.0004317   0.0001833   0.0000574
   36   0.0025504  -0.0063215   0.0044094  -0.0000133  -0.0001633   0.0002665
   37  -0.0000084  -0.0000047   0.0000380  -0.0000109   0.0000046   0.0000049
   38   0.0000000   0.0000049  -0.0000100   0.0000007  -0.0000006   0.0000021
   39  -0.0000009   0.0000054   0.0000147  -0.0000191   0.0000120   0.0000165
   40  -0.0000005   0.0000104  -0.0000176   0.0001340  -0.0000207  -0.0000895
   41  -0.0000039  -0.0000136   0.0000158   0.0002151  -0.0000090   0.0000636
   42   0.0000092  -0.0000143   0.0000153   0.0000102  -0.0000992   0.0001373
   43   0.0000079  -0.0000049   0.0000089   0.0003696   0.0002083   0.0000222
   44  -0.0000015  -0.0000056   0.0000066   0.0001468   0.0000838   0.0000287
   45  -0.0000091   0.0000038  -0.0000177  -0.0000934   0.0000151  -0.0002352
   46   0.0007236  -0.0000086   0.0003267   0.0003548  -0.0003699  -0.0004085
   47   0.0014823   0.0015559   0.0036478   0.0003239   0.0007179  -0.0007921
   48  -0.0004864   0.0022168  -0.0034255  -0.0001449   0.0004506   0.0019615
   49   0.0008239  -0.0014671   0.0009283   0.0017881  -0.0000653   0.0002090
   50  -0.0008586   0.0003237  -0.0014931  -0.0013775   0.0007198   0.0002930
   51   0.0009012  -0.0004309   0.0008966   0.0008879   0.0001962  -0.0004284
   52   0.0004719   0.0003058  -0.0003318  -0.0005117   0.0002326   0.0001819
   53   0.0001136  -0.0001995   0.0010155   0.0003756  -0.0002366  -0.0002989
   54  -0.0001471   0.0002434  -0.0005132   0.0001091  -0.0000286  -0.0000385
   55  -0.0001400   0.0001663  -0.0002188  -0.0764479  -0.0586518  -0.0415857
   56   0.0000583   0.0000648  -0.0001127  -0.0586672  -0.2722240  -0.1341294
   57   0.0000374  -0.0001107   0.0002935  -0.0411995  -0.1319204  -0.1510681
   58  -0.0000321   0.0000285  -0.0000069  -0.0000265  -0.0000113   0.0000131
   59   0.0000767  -0.0000709   0.0000233   0.0000247   0.0000029  -0.0000229
   60   0.0000516  -0.0001187   0.0000591  -0.0000502  -0.0000229   0.0000142
   61  -0.0000294   0.0003343   0.0000363   0.0001478  -0.0001139  -0.0001781
   62   0.0000100  -0.0001760  -0.0000411  -0.0000942   0.0000713   0.0001119
   63   0.0000098  -0.0003695  -0.0000335  -0.0001685   0.0001301   0.0002021
   64  -0.0001841   0.0000317  -0.0000398  -0.0114826   0.0027754   0.0008917
   65  -0.0000632   0.0000625  -0.0001285  -0.0279309  -0.0001816  -0.0009873
   66  -0.0001175  -0.0000163  -0.0001095  -0.0173993   0.0017670  -0.0005677
   67   0.0021180   0.0208946   0.0293581  -0.0000138  -0.0000061   0.0000087
   68  -0.0044941  -0.0043311  -0.0050861  -0.0000049   0.0000092  -0.0000042
   69  -0.0034293   0.0003336   0.0004339  -0.0000095  -0.0000099   0.0000048
   70  -0.0001095   0.0007699   0.0001296   0.0002892  -0.0002162  -0.0002698
   71  -0.0001047  -0.0001271   0.0000019  -0.0000385   0.0000387   0.0000547
   72   0.0000230  -0.0003243  -0.0000752  -0.0002014   0.0001532   0.0001921
   73   0.0004256  -0.0003474   0.0001246   0.0000407   0.0000417   0.0001530
   74  -0.0000517  -0.0001674  -0.0000054  -0.0001271   0.0000112  -0.0001259
   75  -0.0002613   0.0002012  -0.0000442   0.0000163   0.0000146   0.0003503
   76  -0.0030321  -0.0017706   0.0019858   0.0001906  -0.0000292   0.0001649
   77  -0.0030605  -0.0009674   0.0019256  -0.0000866   0.0000084   0.0000721
   78   0.0014350   0.0006290  -0.0000083   0.0000650  -0.0000122   0.0000385
   79  -0.0002995   0.0002055  -0.0013914   0.0033759   0.0016475  -0.0064698
   80  -0.0002685   0.0000454  -0.0004281   0.0156137   0.0050077  -0.0276104
   81  -0.0001254   0.0001774   0.0000194   0.0095606   0.0053184  -0.0180843
   82   0.0000446  -0.0000336   0.0000684   0.0039559  -0.0090216   0.0053459
   83   0.0000068  -0.0000377   0.0000485   0.0112481  -0.0165920   0.0172992
   84  -0.0000451   0.0000145  -0.0000389   0.0084542  -0.0187922   0.0114133
   85   0.0000182   0.0000426  -0.0000553   0.0010389   0.0000843  -0.0007640
   86   0.0001084  -0.0000505   0.0003583   0.0003782   0.0002869   0.0002501
   87  -0.0000808   0.0000410  -0.0002234  -0.0002785  -0.0000452   0.0014533
   88   0.0000014   0.0000521   0.0000098   0.0000303  -0.0000218  -0.0000382
   89  -0.0000018   0.0000193   0.0000036   0.0000209  -0.0000148  -0.0000253
   90   0.0000056  -0.0000035   0.0000019  -0.0000090   0.0000058   0.0000100
   91   0.0000115  -0.0006445  -0.0001007  -0.0002914   0.0002219   0.0003242
   92   0.0000124   0.0000840   0.0000188   0.0000459  -0.0000358  -0.0000697
   93  -0.0000041   0.0004088   0.0000572   0.0002090  -0.0001592  -0.0002448
   94  -0.0001958  -0.0004369  -0.0002363  -0.0002301   0.0001394   0.0001055
   95   0.0001989   0.0002329  -0.0001452   0.0000461  -0.0000864  -0.0001554
   96   0.0003995   0.0001827  -0.0000116   0.0002080  -0.0001581  -0.0001848
   97  -0.0001175  -0.0024811   0.0003615   0.0000014   0.0000049  -0.0000068
   98  -0.0011250  -0.0020898   0.0002432   0.0000049  -0.0000024  -0.0000048
   99   0.0010166   0.0009064   0.0006508  -0.0000003  -0.0000055  -0.0000132
  100   0.0000239   0.0000055   0.0000268  -0.0060264  -0.0002772   0.0007673
  101  -0.0000494  -0.0000359   0.0000534  -0.0000175   0.0009208   0.0006767
  102   0.0000486  -0.0000399   0.0000640  -0.0001795  -0.0001306   0.0005972
  103   0.0000160  -0.0000330   0.0000171  -0.0007741  -0.0007427   0.0026746
  104  -0.0000245   0.0000107  -0.0000187  -0.0014091   0.0006238   0.0019922
  105  -0.0000083  -0.0000075  -0.0000198   0.0036842   0.0016111  -0.0041886
  106   0.0000110  -0.0000059   0.0000107  -0.0001550  -0.0001444   0.0001387
  107   0.0000012   0.0000090  -0.0000033  -0.0015243   0.0000888   0.0001033
  108  -0.0000040   0.0000129  -0.0000062  -0.0005753  -0.0001445   0.0002263
  109  -0.0000079   0.0000071  -0.0000148   0.0000222   0.0000567   0.0000163
  110  -0.0000169   0.0000084  -0.0000183   0.0003009   0.0002805  -0.0001206
  111  -0.0000075   0.0000032  -0.0000122   0.0001066  -0.0000669   0.0000165
  112   0.0000004   0.0000256  -0.0000067   0.0000167  -0.0000103  -0.0000181
  113  -0.0000040   0.0000421   0.0000141   0.0000136  -0.0000134  -0.0000216
  114   0.0000032   0.0000299  -0.0000088   0.0000214  -0.0000165  -0.0000244
  115  -0.0000132   0.0000149  -0.0000154   0.0000013   0.0000848   0.0001167
  116  -0.0000069  -0.0000055  -0.0000008   0.0002547   0.0000401   0.0001343
  117  -0.0000031   0.0000007  -0.0000088   0.0000777   0.0001250   0.0000657
  118   0.0000115   0.0001456  -0.0000536   0.0000360  -0.0000358  -0.0000510
  119   0.0000486   0.0000177   0.0000009   0.0000286  -0.0000085   0.0000013
  120   0.0000067  -0.0001393   0.0000395  -0.0000247   0.0000204   0.0000388
  121   0.0000115  -0.0000537  -0.0000032  -0.0000054   0.0000094   0.0000158
  122  -0.0000136  -0.0000500  -0.0000190  -0.0000111   0.0000123   0.0000150
  123   0.0000000   0.0000108   0.0000121   0.0000092  -0.0000077  -0.0000144
  124  -0.0000030   0.0000069   0.0000071   0.0000024  -0.0000034  -0.0000048
  125  -0.0000016   0.0000212  -0.0000090   0.0000095  -0.0000034  -0.0000072
  126   0.0000007  -0.0000020  -0.0000181   0.0000049   0.0000007  -0.0000004
  127   0.0000050  -0.0000657   0.0000033   0.0000124   0.0000190   0.0000253
  128   0.0000099  -0.0000165   0.0000073  -0.0000092   0.0000004  -0.0000017
  129  -0.0000038   0.0000033  -0.0000028   0.0000159   0.0000049   0.0000007
           25          26          27          28          29          30
    1   0.0001475   0.0000158   0.0001414  -0.0003775   0.0003290   0.0003413
    2  -0.0006687   0.0005644   0.0000234  -0.0009214  -0.0006911   0.0009332
    3   0.0000232   0.0002996   0.0001898   0.0005292  -0.0003619  -0.0009255
    4   0.0000031  -0.0000322  -0.0000882  -0.0000603  -0.0000341   0.0000990
    5   0.0002786  -0.0000580  -0.0000514   0.0002226   0.0003666  -0.0001543
    6   0.0001688  -0.0001000  -0.0001239   0.0002432   0.0003447   0.0002851
    7  -0.0682186  -0.0226513  -0.0073812  -0.0000114   0.0000506   0.0000134
    8  -0.0244155  -0.3537771  -0.0882278  -0.0000015  -0.0000770  -0.0000354
    9  -0.0083229  -0.0903268  -0.0885201  -0.0000651  -0.0000651   0.0000252
   10   0.0000682   0.0000938  -0.0001942  -0.1696706  -0.1402063   0.0309839
   11   0.0001122  -0.0000960   0.0000479  -0.1434207  -0.2585170   0.0455929
   12  -0.0001354   0.0002421  -0.0001677   0.0352499   0.0477443  -0.0629628
   13   0.0000886  -0.0001360   0.0000786  -0.0004820   0.0010747   0.0021938
   14  -0.0000706   0.0001079  -0.0000572   0.0002053  -0.0011311   0.0001831
   15   0.0000163   0.0000199  -0.0001691   0.0000574   0.0005727   0.0004090
   16   0.0011232  -0.0001569  -0.0000206   0.0005546   0.0021080   0.0029680
   17  -0.0012266   0.0001772   0.0001141   0.0012170  -0.0024312   0.0001857
   18   0.0003666   0.0000191   0.0000622   0.0000184   0.0012406  -0.0005974
   19   0.0000272  -0.0000145   0.0000260  -0.3526465   0.0910308   0.0338476
   20  -0.0000577   0.0000485  -0.0000234   0.0908266  -0.0928379  -0.0090771
   21   0.0001136  -0.0000318  -0.0000136   0.0351237  -0.0104174  -0.0628812
   22   0.0014085  -0.0005631  -0.0012672   0.0001991   0.0000482   0.0000463
   23   0.0008553   0.0006377  -0.0001388  -0.0000098  -0.0000636  -0.0000352
   24   0.0010662   0.0009554   0.0006299  -0.0000482  -0.0000424  -0.0000301
   25   0.6936229   0.0096954   0.0502805   0.0004343   0.0000657   0.0000082
   26   0.0096954   0.7137838  -0.0108339  -0.0007249  -0.0005941   0.0002038
   27   0.0502805  -0.0108339   0.5462045   0.0006052   0.0009430   0.0001242
   28   0.0004343  -0.0007249   0.0006052   0.7130163  -0.0021234  -0.0400766
   29   0.0000657  -0.0005941   0.0009430  -0.0021234   0.6242346   0.0339531
   30   0.0000082   0.0002038   0.0001242  -0.0400766   0.0339531   0.5387350
   31  -0.0000285   0.0000038   0.0000058  -0.0000077   0.0000019  -0.0000101
   32  -0.0002604   0.0000586   0.0000575  -0.0001857  -0.0000588   0.0001431
   33  -0.0001384   0.0000384   0.0000194  -0.0000768  -0.0000210   0.0000527
   34  -0.0000082   0.0019544  -0.0029269  -0.1164968   0.0279335  -0.0336062
   35   0.0036125  -0.0023058  -0.0019866   0.0324310  -0.1181015   0.0498553
   36  -0.0032046   0.0024376   0.0005192  -0.0441973   0.0617252  -0.1508697
   37  -0.0000758  -0.0000208   0.0000604  -0.0000518  -0.0000412   0.0000350
   38   0.0000094   0.0000088  -0.0000193  -0.0000107   0.0000064  -0.0000242
   39  -0.0001322   0.0000116   0.0000603  -0.0000915  -0.0000430   0.0001265
   40  -0.1605517   0.0993656  -0.1102174  -0.0001086  -0.0000977   0.0000034
   41   0.1000369  -0.1681397   0.1110096   0.0000137  -0.0000705  -0.0000786
   42  -0.1117154   0.1124737  -0.1801314   0.0002248   0.0001703   0.0000447
   43  -0.3445284  -0.0918101   0.0197590   0.0000600   0.0000185   0.0000058
   44  -0.0934328  -0.0961669   0.0055619   0.0000187  -0.0000209  -0.0000255
   45   0.0232892   0.0065594  -0.0630849  -0.0000602   0.0000266   0.0000204
   46  -0.0002571   0.0003013   0.0001159  -0.0133982   0.0045292  -0.0077291
   47   0.0009255  -0.0000080   0.0000179   0.0180316   0.0044165   0.0059220
   48  -0.0003434  -0.0000216   0.0002954  -0.0252831   0.0030363  -0.0002249
   49   0.0052342  -0.0068865   0.0034121   0.0078336   0.0086248  -0.0019604
   50  -0.0039387  -0.0004230   0.0029034  -0.0104719   0.0031375   0.0179912
   51  -0.0089047   0.0214177  -0.0256403   0.0187365   0.0121851  -0.0198339
   52  -0.0030145   0.0006030   0.0001685   0.0015920  -0.0041301  -0.0037965
   53   0.0019978  -0.0011473   0.0008373  -0.0004851   0.0001856  -0.0029906
   54  -0.0009403   0.0015285  -0.0011278   0.0004705  -0.0034307  -0.0008517
   55  -0.0174063  -0.0024832   0.0086920  -0.0011265  -0.0002105   0.0003419
   56   0.0033882   0.0000386   0.0005395   0.0000243   0.0006283   0.0003887
   57   0.0322179   0.0044631  -0.0018979   0.0006245  -0.0004929  -0.0002306
   58  -0.0014739  -0.0010991   0.0006971   0.0000452   0.0002117  -0.0004548
   59   0.0027390   0.0005802  -0.0000552  -0.0001083  -0.0000821   0.0001855
   60  -0.0042593  -0.0004981  -0.0001830  -0.0002884   0.0000765   0.0003215
   61   0.0014740  -0.0003131  -0.0003283   0.0009100   0.0001932  -0.0007065
   62  -0.0009063   0.0001750   0.0002089  -0.0005595  -0.0001277   0.0004422
   63  -0.0016738   0.0003675   0.0003663  -0.0009749  -0.0002329   0.0007727
   64  -0.1044143   0.0047110   0.0338318  -0.0021532   0.0007796   0.0021430
   65   0.0062873  -0.0812309  -0.0163738   0.0005830   0.0042866  -0.0009921
   66   0.0368969  -0.0136485  -0.1745105   0.0013527   0.0038585   0.0037298
   67   0.0000005   0.0000345  -0.0000154  -0.0621814   0.0152241   0.0125640
   68   0.0000164  -0.0000772  -0.0000586   0.0165659  -0.1623332  -0.1412158
   69  -0.0001176  -0.0000122   0.0001589   0.0188487  -0.1529726  -0.2466351
   70   0.0025668  -0.0002351  -0.0007563   0.0009894  -0.0002978  -0.0010512
   71  -0.0004676   0.0001258   0.0001032  -0.0001044  -0.0001092   0.0000922
   72  -0.0017979   0.0001394   0.0005842  -0.0009818  -0.0001160   0.0009428
   73   0.0001410  -0.0000010   0.0001062   0.0010651  -0.0012343  -0.0000009
   74  -0.0002986  -0.0000358  -0.0000172   0.0009917  -0.0000664  -0.0001903
   75   0.0001947   0.0000035  -0.0000356  -0.0019320   0.0005171   0.0002303
   76  -0.0007717   0.0003245   0.0010917  -0.0021941  -0.0042025   0.0011010
   77  -0.0007183  -0.0002343   0.0005171  -0.0008354  -0.0020977  -0.0006022
   78  -0.0002692   0.0007946  -0.0005712  -0.0001276  -0.0009358  -0.0006074
   79  -0.0054409  -0.0012009  -0.0025784  -0.0043208  -0.0002955   0.0014143
   80  -0.0000247   0.0003987   0.0003080  -0.0025412  -0.0008896  -0.0014997
   81  -0.0021689  -0.0000577  -0.0004711   0.0007663   0.0022203   0.0031062
   82   0.0009151   0.0001338  -0.0011556   0.0002878  -0.0000229  -0.0000717
   83  -0.0005754   0.0000816  -0.0001423   0.0000831  -0.0002305  -0.0002393
   84   0.0006136  -0.0004166   0.0005061  -0.0002234   0.0000100   0.0000836
   85  -0.0002117  -0.0000448   0.0000088  -0.0001614   0.0002140   0.0003053
   86  -0.0003633  -0.0000366   0.0000593   0.0013149   0.0003379   0.0000605
   87   0.0015804   0.0002564   0.0006936  -0.0008743  -0.0001630   0.0000413
   88   0.0002817  -0.0000766  -0.0000471   0.0001766   0.0000534  -0.0001376
   89   0.0001935  -0.0000402  -0.0000464   0.0001426   0.0000483  -0.0001200
   90  -0.0000795   0.0000098   0.0000258  -0.0000719  -0.0000211   0.0000659
   91  -0.0027730   0.0004827   0.0006704  -0.0014697  -0.0002272   0.0012360
   92   0.0005195  -0.0001766  -0.0000589   0.0003500   0.0001711  -0.0001821
   93   0.0020203  -0.0003730  -0.0004970   0.0012015   0.0002784  -0.0009795
   94  -0.0012758  -0.0003886   0.0006469   0.0005214   0.0006648   0.0000689
   95   0.0011275  -0.0003852  -0.0002656   0.0009128   0.0006924  -0.0005253
   96   0.0018053  -0.0002294  -0.0004300   0.0007236   0.0006657  -0.0007372
   97   0.0000789   0.0001000  -0.0002018  -0.0010569   0.0008917   0.0003819
   98   0.0000011  -0.0000656   0.0000842  -0.0011555   0.0005001   0.0004231
   99   0.0000371   0.0000276  -0.0000858   0.0006300   0.0007547  -0.0003265
  100   0.0017527   0.0123083   0.0068144   0.0000702  -0.0007598  -0.0000073
  101  -0.0027467  -0.0096314  -0.0067098  -0.0000282   0.0012585   0.0011104
  102  -0.0054227  -0.0345585  -0.0150818   0.0002581  -0.0009173  -0.0001513
  103   0.0002146  -0.0000940  -0.0001203   0.0000658  -0.0001944  -0.0002671
  104  -0.0002228  -0.0000663  -0.0000541  -0.0000595   0.0001442   0.0002081
  105  -0.0000153   0.0001036   0.0001389  -0.0001252  -0.0002938  -0.0003305
  106   0.0006263   0.0006029   0.0004459   0.0000800  -0.0000181  -0.0000291
  107  -0.0002279   0.0014772   0.0017793  -0.0000060  -0.0002158  -0.0000399
  108  -0.0009052   0.0003669   0.0008474  -0.0000164  -0.0000156  -0.0000290
  109   0.0000313   0.0002992   0.0001116  -0.0000510  -0.0000782  -0.0000990
  110   0.0002049   0.0019164   0.0010089  -0.0000836   0.0003249   0.0001039
  111   0.0002147  -0.0001825   0.0007362  -0.0000501   0.0001874   0.0000338
  112   0.0001464  -0.0000342  -0.0000324   0.0001083   0.0000447  -0.0000804
  113   0.0001675  -0.0000454  -0.0000267   0.0000947   0.0000147  -0.0000605
  114   0.0001949  -0.0000493  -0.0000487   0.0001449   0.0000583  -0.0001448
  115  -0.0000914  -0.0020952  -0.0003955  -0.0000775  -0.0000182  -0.0000439
  116  -0.0015322  -0.0055012  -0.0009784  -0.0000578   0.0000333   0.0000289
  117  -0.0002035  -0.0014672   0.0004874  -0.0000350  -0.0000142   0.0000005
  118   0.0004944  -0.0001062  -0.0001289   0.0003316   0.0001447  -0.0002231
  119  -0.0000169   0.0000787  -0.0000340  -0.0001060  -0.0000520  -0.0000018
  120  -0.0003743   0.0000706   0.0001345  -0.0002682  -0.0000374   0.0002499
  121  -0.0001309   0.0000350   0.0000434  -0.0000964   0.0000008   0.0001326
  122  -0.0001452   0.0000202   0.0000515  -0.0000935  -0.0000092   0.0001274
  123   0.0000968  -0.0000399  -0.0000100   0.0000821   0.0000400  -0.0000860
  124   0.0000240  -0.0000120  -0.0000018   0.0000174  -0.0000022  -0.0000320
  125   0.0000779  -0.0000053  -0.0000254   0.0000505   0.0000129  -0.0000337
  126   0.0000037   0.0000062   0.0000010   0.0000097   0.0000223   0.0000340
  127  -0.0002325   0.0001151   0.0000438  -0.0001582  -0.0000434   0.0001490
  128   0.0000049  -0.0000313   0.0000089   0.0000140   0.0000078  -0.0000107
  129  -0.0000844   0.0000310   0.0000162  -0.0000328  -0.0000371   0.0000002
           31          32          33          34          35          36
    1  -0.0001300  -0.0002084  -0.0001449  -0.0001463  -0.0000247  -0.0003734
    2   0.0002589   0.0013092   0.0005651   0.0023436   0.0020337  -0.0039060
    3   0.0001309   0.0003605   0.0002890  -0.0001753  -0.0001169   0.0007035
    4  -0.0000183  -0.0000140  -0.0000252  -0.0001256   0.0000196  -0.0000084
    5  -0.0000798  -0.0002125  -0.0001277  -0.0011981  -0.0009251   0.0011400
    6  -0.0000362  -0.0000495  -0.0001005  -0.0011199  -0.0010333   0.0010704
    7  -0.0000009   0.0000236   0.0000122  -0.0000534  -0.0001351   0.0000957
    8   0.0000003   0.0000178   0.0000077  -0.0000888  -0.0000369  -0.0000798
    9  -0.0000023  -0.0000075  -0.0000007   0.0002043  -0.0001131  -0.0000040
   10   0.0000058   0.0001030   0.0000493   0.0087972   0.0107229   0.0019980
   11  -0.0000018   0.0000120   0.0000029  -0.0068453  -0.0113090   0.0030807
   12  -0.0000002  -0.0000201  -0.0000119   0.0159448   0.0259977  -0.0119382
   13   0.0000021   0.0000162   0.0000102  -0.0211203  -0.0292215  -0.0162306
   14   0.0000095   0.0001495   0.0000762  -0.0077403   0.0001050   0.0043016
   15   0.0000078   0.0001092   0.0000561  -0.0021315   0.0010750   0.0009232
   16   0.0000862   0.0004499   0.0001868  -0.0020770  -0.0044656   0.0010163
   17  -0.0000639  -0.0007386  -0.0001707   0.0033521   0.0030404   0.0031168
   18  -0.0000005   0.0000091  -0.0000378   0.0020602  -0.0001204  -0.0046167
   19   0.0000025   0.0000037  -0.0000003  -0.0059753  -0.0004446   0.0025504
   20  -0.0000108  -0.0000386  -0.0000249   0.0148518  -0.0039929  -0.0063215
   21  -0.0000019  -0.0000062  -0.0000084  -0.0320968   0.0072642   0.0044094
   22  -0.0000023  -0.0000286  -0.0000153  -0.0007899  -0.0004317  -0.0000133
   23   0.0000011   0.0000197   0.0000101   0.0003864   0.0001833  -0.0001633
   24   0.0000028   0.0000347   0.0000194  -0.0002318   0.0000574   0.0002665
   25  -0.0000285  -0.0002604  -0.0001384  -0.0000082   0.0036125  -0.0032046
   26   0.0000038   0.0000586   0.0000384   0.0019544  -0.0023058   0.0024376
   27   0.0000058   0.0000575   0.0000194  -0.0029269  -0.0019866   0.0005192
   28  -0.0000077  -0.0001857  -0.0000768  -0.1164968   0.0324310  -0.0441973
   29   0.0000019  -0.0000588  -0.0000210   0.0279335  -0.1181015   0.0617252
   30  -0.0000101   0.0001431   0.0000527  -0.0336062   0.0498553  -0.1508697
   31   0.0681312   0.0678689   0.0286676   0.0001295   0.0000910  -0.0001410
   32   0.0678689   0.2796122   0.1668494   0.0015002   0.0010316  -0.0016957
   33   0.0286676   0.1668494   0.1408572   0.0007264   0.0004971  -0.0008192
   34   0.0001295   0.0015002   0.0007264   0.5553996   0.0003155  -0.0539304
   35   0.0000910   0.0010316   0.0004971   0.0003155   0.3199868  -0.1876507
   36  -0.0001410  -0.0016957  -0.0008192  -0.0539304  -0.1876507   0.5104990
   37   0.0001396   0.0002588   0.0004460   0.0004675   0.0003099  -0.0004231
   38  -0.0002751   0.0000436  -0.0001068  -0.0000618  -0.0000162   0.0000384
   39   0.0001479  -0.0003311   0.0003053   0.0006805   0.0004508  -0.0007826
   40   0.0000059   0.0000475   0.0000214  -0.0001024  -0.0009726   0.0010144
   41  -0.0000039  -0.0000379  -0.0000207   0.0001172   0.0004329  -0.0003526
   42  -0.0000065  -0.0000411  -0.0000206  -0.0003626   0.0009057  -0.0010447
   43  -0.0000001   0.0000037  -0.0000011  -0.0002482  -0.0001726   0.0003273
   44   0.0000023  -0.0000239  -0.0000141   0.0000244   0.0000416  -0.0000896
   45   0.0000033   0.0000170   0.0000166   0.0004013   0.0003216  -0.0003541
   46  -0.0000199  -0.0002761  -0.0001394  -0.2027326   0.0172307  -0.0016825
   47  -0.0000148  -0.0002522  -0.0001217   0.0236388  -0.0773725   0.0016153
   48  -0.0000056  -0.0000826  -0.0000435   0.0122233   0.0071655  -0.0918448
   49  -0.0000499  -0.0005720  -0.0003020  -0.1644701  -0.0462044   0.0839262
   50  -0.0000701  -0.0010752  -0.0004969  -0.0386625  -0.1142932   0.0908592
   51   0.0001572   0.0016981   0.0008185   0.0764973   0.0913655  -0.2155426
   52  -0.0001284  -0.0009589  -0.0003551  -0.0320548   0.0003449   0.0145229
   53   0.0000075   0.0004030   0.0000583  -0.0206857  -0.0062329   0.0010254
   54   0.0000101   0.0000864   0.0000509   0.0243654  -0.0090374   0.0083658
   55   0.0000191   0.0002289   0.0001263   0.0029548   0.0011074   0.0022135
   56   0.0000018   0.0000347   0.0000300  -0.0015862   0.0016982  -0.0021947
   57  -0.0000164  -0.0001444  -0.0000872   0.0005654  -0.0026094   0.0024252
   58  -0.0000209   0.0000466   0.0000065  -0.0060811   0.0016315   0.0006840
   59   0.0000054   0.0000022  -0.0000137   0.0019988   0.0032569   0.0010254
   60   0.0000172   0.0000556   0.0000579   0.0008091   0.0022729  -0.0019654
   61  -0.0795491  -0.0623772  -0.0288734  -0.0083683  -0.0056538   0.0094987
   62  -0.0691239  -0.2837020  -0.1542900   0.0049638   0.0033457  -0.0055831
   63  -0.0338301  -0.1586646  -0.1485547   0.0093585   0.0063466  -0.0106537
   64   0.0000106   0.0001161   0.0000405   0.0103923  -0.0135431   0.0126557
   65   0.0000350   0.0004344   0.0001918  -0.0029307  -0.0064295   0.0165813
   66   0.0000055   0.0000624   0.0000607  -0.0014494   0.0173563  -0.0158950
   67   0.0000054   0.0000713   0.0000339   0.0007401  -0.0097642  -0.0062824
   68  -0.0000035  -0.0000748  -0.0000328  -0.0013096   0.0136156   0.0146418
   69  -0.0000015  -0.0000731  -0.0000343   0.0003732  -0.0099346  -0.0298536
   70   0.0015439   0.0038174  -0.0005177  -0.0127733  -0.0084660   0.0141237
   71   0.0027437  -0.0000609   0.0029542   0.0025078   0.0017978  -0.0028642
   72  -0.0017977   0.0021671  -0.0030391   0.0090085   0.0059738  -0.0096969
   73  -0.0000027  -0.0000229  -0.0000123  -0.0159240  -0.0009184   0.0346608
   74   0.0000093   0.0001155   0.0000597  -0.0071328  -0.0026789   0.0015700
[...]
 -----------------------------------------------------------------
 Calculating analytic gradient of the SCF energy
 Gradient of SCF Energy
            1           2           3           4           5           6
    1   0.0000280   0.0000424  -0.0000143  -0.0005058  -0.0000984   0.0000726
    2  -0.0009439   0.0005841  -0.0000310  -0.0004466  -0.0001145   0.0011628
    3   0.0001286  -0.0002508   0.0000462   0.0002615  -0.0000305   0.0006959
            7           8           9          10          11          12
    1  -0.0000261   0.0000536  -0.0002739   0.0002500   0.0005383   0.0002873
    2   0.0002183   0.0001998   0.0001383  -0.0002865   0.0003879   0.0001166
    3   0.0000350   0.0000773  -0.0000114  -0.0008252   0.0007998  -0.0001514
           13          14          15          16          17          18
    1  -0.0004010   0.0001104   0.0000682   0.0002483  -0.0005417   0.0008026
    2  -0.0003438  -0.0000869   0.0000773  -0.0001370   0.0003895  -0.0007398
    3  -0.0008544   0.0000435  -0.0000181   0.0001451  -0.0007949   0.0014151
           19          20          21          22          23          24
    1   0.0000952   0.0000267  -0.0011377   0.0000890   0.0002360   0.0002777
    2  -0.0002641   0.0001284  -0.0003431  -0.0004834   0.0004683   0.0003320
    3  -0.0002737  -0.0004001   0.0002998   0.0004104   0.0006712   0.0009132
           25          26          27          28          29          30
    1  -0.0001664  -0.0008785   0.0002764  -0.0000963  -0.0002006   0.0001879
    2   0.0000492  -0.0005501   0.0007621   0.0000291  -0.0000634   0.0000296
    3   0.0000626  -0.0014588   0.0003718  -0.0000360  -0.0000594  -0.0001981
           31          32          33          34          35          36
    1   0.0001410  -0.0003321   0.0001460  -0.0000311  -0.0001142  -0.0000765
    2  -0.0003802  -0.0000712  -0.0000500   0.0000527  -0.0004970   0.0000836
    3  -0.0020308   0.0003752  -0.0000550  -0.0003741  -0.0002257   0.0000803
           37          38          39          40          41          42
    1   0.0000877   0.0005447   0.0000246   0.0007943   0.0001057  -0.0005167
    2  -0.0000249   0.0003865   0.0001231   0.0005542  -0.0001361  -0.0004145
    3   0.0002072   0.0009774   0.0000935  -0.0005138   0.0000861   0.0002830
           43
    1  -0.0001233
    2   0.0001351
    3   0.0000825
 Max gradient component =       2.031E-03
 RMS gradient           =       4.643E-04
 Gradient time:  CPU 30.31 s  wall 2.57 s
    ==================================================
         Total gradient calculations so far = 44
    ==================================================
 ----------------------------------------------------------------
             Standard Nuclear Orientation (Angstroms)
    I     Atom           X                Y                Z
 ----------------------------------------------------------------
    1      Fe     -1.3101132695     2.3283363243     0.4588842945
    2      O      -0.8329830449     3.6140894590     0.0058839405
    3      H       1.6847662214     0.1810307973     2.6256724686
    4      H       2.4181641911     1.4534129575    -2.5855825218
    5      H       4.1663445635     0.6732434503    -0.8826666388
    6      O      -0.8679905621     0.7994152354    -0.0786396164
    7      H       0.7497620043     1.3698756267    -1.9653137848
    8      H       3.8932873368    -0.2984366894     1.5687633774
    9      C       1.5351591023    -0.9066711367     2.5409249335
   10      C       1.6276979776     0.7688323994    -2.2370072249
   11      H      -4.8362021824    -1.0502350135     2.4292633395
   12      C       2.1772241060    -0.0853223526    -1.0801969606
   13      H      -2.8093742181    -0.5493432338     1.0887328273
   14      H       2.1085162323    -1.3934237365     3.3444134779
   15      H       0.4731861953    -1.1412074020     2.7086388381
   16      C       3.6964202941    -0.2946443563    -1.1649184584
   17      C       1.4241838750    -0.6272659529    -0.0316381860
   18      C      -0.0559369613    -0.5744331457     0.0524154648
   19      C       3.6296588550    -1.2879362989     1.1573370778
   20      H      -0.4781498071    -1.0909121934     0.9374889836
   21      C      -5.2983932284    -1.4462244377     1.5058646211
   22      C       2.0637962219    -1.4430266014     1.1571637570
   23      H       1.3746843210     0.1126329029    -3.0923302158
   24      C      -3.2668794682    -0.9597732268     0.1709084523
   25      H       3.9554104713    -0.4566771201    -2.2298669590
   26      C      -1.1353289094    -0.3255327505    -1.0497254096
   27      C       4.2369784567    -1.4328347246    -0.2604737911
   28      H       4.0468771473    -2.0535349131     1.8324409896
   29      H       5.3365232134    -1.3605838853    -0.2116811371
   30      H      -6.3303295922    -1.8378191183     1.5847685712
   31      C      -4.6206664218    -1.4584749553     0.2910164902
   32      C      -2.5173697802    -0.9538283447    -1.0179965226
   33      H      -0.7629065993    -0.0910817307    -2.0672506378
   34      C       1.6741243643    -2.9635428358     1.0057397045
   35      H       3.9826108157    -2.4136225378    -0.6949034270
   36      H       0.5823153191    -3.1022990061     1.0318320103
   37      H       2.1114827886    -3.5298942619     1.8418695743
   38      H      -5.1311114679    -1.8537457593    -0.6024958779
   39      H       2.0578032390    -3.3806777302     0.0624064082
   40      C      -2.9708560887    -1.5516981821    -2.3509212709
   41      H      -3.2245507981    -0.7370707435    -3.0590275183
   42      H      -3.8486963234    -2.2017538219    -2.2287885208
   43      H      -2.1510185902    -2.1401009541    -2.8021749227
 ----------------------------------------------------------------
 Nuclear Repulsion Energy =  1802.9341698178 hartrees
 There are       82 alpha and       78 beta electrons
 ------------------------------------------------------------------------------
         Vec  Conv   RNorm       Lowest eigenvalues (eV/Hartrees)
 ------------------------------------------------------------------------------
    10    22     2  6.54e-06     0.00197 (0.00007)*    0.00913 (0.00034)*
 ------------------------------------------------------------------------------
Lowest eigenvalue(s) (in eV):
0.00197
0.00913
Tolerance for negative eigenvalues: 1.0e-05

    ==================================================
                  Failed to find transition state
                The end of Characterization              
    ==================================================
Total cost of characterization (# gradients):   44
Time spent in characterization:  5.9e+03s (CPU)  491s (wall)

                       Coordinates (Angstroms)
     ATOM                X               Y               Z
      1  Fe       -1.3101132695    2.3283363243    0.4588842945
      2  O        -0.8329830449    3.6140894590    0.0058839405
      3  H         1.6847662214    0.1810307973    2.6256724686
      4  H         2.4181641911    1.4534129575   -2.5855825218
      5  H         4.1663445635    0.6732434503   -0.8826666388
      6  O        -0.8679905621    0.7994152354   -0.0786396164
      7  H         0.7497620043    1.3698756267   -1.9653137848
      8  H         3.8932873368   -0.2984366894    1.5687633774
      9  C         1.5351591023   -0.9066711367    2.5409249335
     10  C         1.6276979776    0.7688323994   -2.2370072249
     11  H        -4.8362021824   -1.0502350135    2.4292633395
     12  C         2.1772241060   -0.0853223526   -1.0801969606
     13  H        -2.8093742181   -0.5493432338    1.0887328273
     14  H         2.1085162323   -1.3934237365    3.3444134779
     15  H         0.4731861953   -1.1412074020    2.7086388381
     16  C         3.6964202941   -0.2946443563   -1.1649184584
     17  C         1.4241838750   -0.6272659529   -0.0316381860
     18  C        -0.0559369613   -0.5744331457    0.0524154648
     19  C         3.6296588550   -1.2879362989    1.1573370778
     20  H        -0.4781498071   -1.0909121934    0.9374889836
     21  C        -5.2983932284   -1.4462244377    1.5058646211
     22  C         2.0637962219   -1.4430266014    1.1571637570
     23  H         1.3746843210    0.1126329029   -3.0923302158
     24  C        -3.2668794682   -0.9597732268    0.1709084523
     25  H         3.9554104713   -0.4566771201   -2.2298669590
     26  C        -1.1353289094   -0.3255327505   -1.0497254096
     27  C         4.2369784567   -1.4328347246   -0.2604737911
     28  H         4.0468771473   -2.0535349131    1.8324409896
     29  H         5.3365232134   -1.3605838853   -0.2116811371
     30  H        -6.3303295922   -1.8378191183    1.5847685712
     31  C        -4.6206664218   -1.4584749553    0.2910164902
     32  C        -2.5173697802   -0.9538283447   -1.0179965226
     33  H        -0.7629065993   -0.0910817307   -2.0672506378
     34  C         1.6741243643   -2.9635428358    1.0057397045
     35  H         3.9826108157   -2.4136225378   -0.6949034270
     36  H         0.5823153191   -3.1022990061    1.0318320103
     37  H         2.1114827886   -3.5298942619    1.8418695743
     38  H        -5.1311114679   -1.8537457593   -0.6024958779
     39  H         2.0578032390   -3.3806777302    0.0624064082
     40  C        -2.9708560887   -1.5516981821   -2.3509212709
     41  H        -3.2245507981   -0.7370707435   -3.0590275183
     42  H        -3.8486963234   -2.2017538219   -2.2287885208
     43  H        -2.1510185902   -2.1401009541   -2.8021749227

Z-matrix Print:
$molecule
2 5
Fe
O  1 1.444307
O  1 1.679882 2 128.529585
C  3 1.509962 1 146.851216 2 -89.794655 0
H  4 1.108613 3 111.915799 1 75.982615 0
C  4 1.518486 3 117.127010 1 -58.897062 0
C  6 1.405452 4 120.317686 3 -28.272654 0
H  7 1.104611 6 118.713681 4 -3.267068 0
C  7 1.447711 6 124.773038 4 176.130023 0
H  9 1.102342 7 119.293655 6 -1.014752 0
C  9 1.391158 7 121.666707 6 179.294980 0
H  11 1.105936 9 121.916777 7 0.388961 0
H  11 1.106555 9 120.895150 7 -179.527539 0
C  6 1.529636 4 114.414982 3 152.012006 0
H  14 1.099132 6 111.784322 4 166.029381 0
H  14 1.105433 6 110.114177 4 44.920883 0
H  14 1.108780 6 109.704828 4 -73.151906 0
C  4 1.562611 3 62.791226 1 -174.301619 0
H  18 1.108318 4 111.983030 3 95.023019 0
C  18 1.483447 4 130.913727 3 -106.046490 0
C  20 1.400089 18 124.422782 4 19.230420 0
C  21 1.535888 20 121.370120 18 -174.134963 0
H  22 1.107902 21 107.708893 20 140.839155 0
H  22 1.112341 21 106.576048 20 -105.994336 0
C  21 1.539406 20 125.842960 18 6.503545 0
H  25 1.098108 21 113.776599 20 30.446334 0
H  25 1.102267 21 109.041279 20 151.264766 0
H  25 1.107335 21 109.463218 20 -92.331713 0
C  22 1.551032 21 114.366580 20 15.880064 0
H  29 1.102441 22 110.038426 21 74.645174 0
H  29 1.102996 22 108.974742 21 -167.351543 0
C  29 1.549200 22 109.172173 21 -47.028081 0
H  32 1.102714 29 110.306161 22 -176.716246 0
H  32 1.103576 29 109.354246 22 -58.460090 0
C  32 1.573524 29 112.382824 22 62.771063 0
C  35 1.575414 32 107.473693 29 -165.243689 0
H  36 1.100419 35 112.652248 32 -169.562908 0
H  36 1.100573 35 108.413076 32 -50.982824 0
H  36 1.101208 35 110.995027 32 67.545350 0
C  35 1.576941 32 109.934718 29 75.950224 0
H  40 1.100495 35 111.200922 32 -60.409498 0
H  40 1.100522 35 108.968576 32 59.167061 0
H  40 1.100900 35 111.365665 32 178.368628 0
$end

 
 --------------------------------------------------------------
 
                    Orbital Energies (a.u.)
 --------------------------------------------------------------
 Requested basis set is STO-3G
 There are 65 shells and 132 basis functions
 
 Alpha MOs
 -- Occupied --
******* -30.205 -26.646 -26.641 -26.636 -19.342 -19.265 -10.446
-10.430 -10.385 -10.366 -10.345 -10.344 -10.336 -10.312 -10.307
-10.289 -10.282 -10.265 -10.234 -10.229 -10.227 -10.227  -4.077
 -2.884  -2.877  -2.866  -1.381  -1.242  -1.112  -1.083  -1.052
 -1.020  -1.000  -0.966  -0.956  -0.936  -0.902  -0.877  -0.872
 -0.867  -0.835  -0.808  -0.794  -0.778  -0.768  -0.734  -0.720
 -0.717  -0.708  -0.700  -0.696  -0.683  -0.677  -0.668  -0.662
 -0.659  -0.652  -0.649  -0.637  -0.635  -0.631  -0.623  -0.622
 -0.617  -0.609  -0.606  -0.605  -0.592  -0.584  -0.577  -0.572
 -0.554  -0.545  -0.539  -0.515  -0.507  -0.504  -0.502  -0.495
 -0.490  -0.468
 -- Virtual --
 -0.366  -0.308  -0.280  -0.252  -0.215  -0.179  -0.145  -0.125
 -0.056  -0.032   0.008   0.027   0.036   0.054   0.073   0.076
  0.091   0.097   0.104   0.119   0.120   0.129   0.135   0.149
  0.153   0.165   0.170   0.183   0.187   0.192   0.200   0.200
  0.221   0.228   0.234   0.246   0.251   0.254   0.258   0.262
  0.271   0.277   0.287   0.295   0.313   0.320   0.329   0.340
  0.378   0.404
 
 Beta MOs
 -- Occupied --
******* -30.168 -26.616 -26.609 -26.604 -19.343 -19.270 -10.445
-10.430 -10.382 -10.365 -10.344 -10.341 -10.334 -10.311 -10.308
-10.289 -10.281 -10.265 -10.233 -10.229 -10.227 -10.227  -3.883
 -2.708  -2.656  -2.635  -1.380  -1.251  -1.105  -1.080  -1.046
 -1.015  -0.998  -0.963  -0.951  -0.936  -0.899  -0.876  -0.872
 -0.861  -0.830  -0.806  -0.791  -0.775  -0.764  -0.726  -0.714
 -0.711  -0.688  -0.682  -0.678  -0.664  -0.658  -0.657  -0.648
 -0.644  -0.641  -0.634  -0.631  -0.621  -0.615  -0.613  -0.610
 -0.605  -0.603  -0.592  -0.577  -0.571  -0.569  -0.554  -0.543
 -0.538  -0.503  -0.501  -0.492  -0.462  -0.460
 -- Virtual --
 -0.420  -0.302  -0.295  -0.285  -0.284  -0.266  -0.250  -0.210
 -0.189  -0.166  -0.132  -0.116  -0.038  -0.022   0.012   0.031
  0.042   0.061   0.078   0.083   0.093   0.099   0.107   0.121
  0.126   0.132   0.136   0.150   0.155   0.165   0.173   0.184
  0.188   0.194   0.201   0.202   0.221   0.229   0.234   0.248
  0.253   0.254   0.258   0.265   0.272   0.278   0.287   0.295
  0.314   0.321   0.329   0.343   0.382   0.407
 --------------------------------------------------------------
 
 A cutoff of  1.0D-11 yielded   1599 shell pairs
 There are      7314 function pairs (      7421 Cartesian)
 Smallest overlap matrix eigenvalue = 2.03E-01
          Ground-State Mulliken Net Atomic Charges

     Atom                 Charge (a.u.)    Spin (a.u.)
  --------------------------------------------------------
      1 Fe                    0.786123       3.503217
      2 O                    -0.192083      -0.292257
      3 H                     0.081329       0.000061
      4 H                     0.133641       0.001751
      5 H                     0.121459       0.007200
      6 O                    -0.253763      -0.027521
      7 H                     0.076136       0.001295
      8 H                     0.086107       0.000183
      9 C                    -0.222547       0.004241
     10 C                    -0.234031      -0.004625
     11 H                     0.143564      -0.014788
     12 C                     0.088673       0.079164
     13 H                     0.115665      -0.001871
     14 H                     0.112771       0.000437
     15 H                     0.065180      -0.000158
     16 C                    -0.136611      -0.001949
     17 C                    -0.005139       0.064151
     18 C                     0.056974       0.026148
     19 C                    -0.132425       0.002871
     20 H                     0.148991      -0.000627
     21 C                    -0.031810       0.332171
     22 C                     0.033490       0.003038
     23 H                     0.122118       0.005099
     24 C                    -0.026580       0.043650
     25 H                     0.119283       0.002866
     26 C                     0.045050      -0.000594
     27 C                    -0.132302       0.001041
     28 H                     0.103860       0.000452
     29 H                     0.111596       0.000152
     30 H                     0.167144      -0.014981
     31 C                    -0.027332       0.019136
     32 C                     0.069818       0.237086
     33 H                     0.160195       0.001959
     34 C                    -0.220026       0.008269
     35 H                     0.089799       0.000033
     36 H                     0.066689      -0.000088
     37 H                     0.107950       0.000062
     38 H                     0.144259      -0.001050
     39 H                     0.091685      -0.000121
     40 C                    -0.225965      -0.010455
     41 H                     0.134964       0.016164
     42 H                     0.126991       0.000709
     43 H                     0.129569       0.008650
  --------------------------------------------------------
  Sum of atomic charges =     2.000458
  Sum of spin   charges =     4.000172

 -----------------------------------------------------------------
                    Cartesian Multipole Moments
 -----------------------------------------------------------------
    Charge (ESU x 10^10)
                 9.6086
    Dipole Moment (Debye)
         X     -10.5103      Y      -2.6278      Z      -1.4158
       Tot      10.9259
    Quadrupole Moments (Debye-Ang)
        XX     -18.9069     XY      12.3284     YY     -94.4379
        XZ      -8.7470     YZ      -1.5643     ZZ     -91.4614
    Octopole Moments (Debye-Ang^2)
       XXX    -224.7352    XXY     -83.6484    XYY     -17.8443
       YYY     102.0801    XXZ      35.9280    XYZ      -3.2786
       YYZ       6.8587    XZZ     -12.5704    YZZ      16.4240
       ZZZ     -18.8700
    Hexadecapole Moments (Debye-Ang^3)
      XXXX   -3073.0597   XXXY     648.7298   XXYY    -978.0620
      XYYY     133.9897   YYYY   -1922.0259   XXXZ    -359.4367
      XXYZ     -60.7471   XYYZ       2.4251   YYYZ      90.1989
      XXZZ    -845.9035   XYZZ      88.0135   YYZZ    -503.1962
      XZZZ     -18.8318   YZZZ      77.7783   ZZZZ   -1186.6618
 -----------------------------------------------------------------
Archival summary:
1\1\cub-0-7.local\TS\ProcedureUnspecified\STO-3G\e121624(2+,5)\c295_lal\WedNov2809:07:382018WedNov2809:07:382018\0\\#,TS,ProcedureUnspecified,STO-3G,\\2,5\Fe\O,1,1.44431\O,1,1.67988,2,128.53\C,3,1.50996,1,146.851,2,-89.7947,0\H,4,1.10861,3,111.916,1,75.9826,0\C,4,1.51849,3,117.127,1,-58.8971,0\C,6,1.40545,4,120.318,3,-28.2727,0\H,7,1.10461,6,118.714,4,-3.26707,0\C,7,1.44771,6,124.773,4,176.13,0\H,9,1.10234,7,119.294,6,-1.01475,0\C,9,1.39116,7,121.667,6,179.295,0\H,11,1.10594,9,121.917,7,0.388961,0\H,11,1.10656,9,120.895,7,-179.528,0\C,6,1.52964,4,114.415,3,152.012,0\H,14,1.09913,6,111.784,4,166.029,0\H,14,1.10543,6,110.114,4,44.9209,0\H,14,1.10878,6,109.705,4,-73.1519,0\C,4,1.56261,3,62.7912,1,-174.302,0\H,18,1.10832,4,111.983,3,95.023,0\C,18,1.48345,4,130.914,3,-106.046,0\C,20,1.40009,18,124.423,4,19.2304,0\C,21,1.53589,20,121.37,18,-174.135,0\H,22,1.1079,21,107.709,20,140.839,0\H,22,1.11234,21,106.576,20,-105.994,0\C,21,1.53941,20,125.843,18,6.50354,0\H,25,1.09811,21,113.777,20,30.4463,0\H,25,1.10227,21,109.041,20,151.265,0\H,25,1.10734,21,109.463,20,-92.3317,0\C,22,1.55103,21,114.367,20,15.8801,0\H,29,1.10244,22,110.038,21,74.6452,0\H,29,1.103,22,108.975,21,-167.352,0\C,29,1.5492,22,109.172,21,-47.0281,0\H,32,1.10271,29,110.306,22,-176.716,0\H,32,1.10358,29,109.354,22,-58.4601,0\C,32,1.57352,29,112.383,22,62.7711,0\C,35,1.57541,32,107.474,29,-165.244,0\H,36,1.10042,35,112.652,32,-169.563,0\H,36,1.10057,35,108.413,32,-50.9828,0\H,36,1.10121,35,110.995,32,67.5453,0\C,35,1.57694,32,109.935,29,75.9502,0\H,40,1.10049,35,111.201,32,-60.4095,0\H,40,1.10052,35,108.969,32,59.1671,0\H,40,1.1009,35,111.366,32,178.369,0\\\@

 Total job time:  1570.26s(wall), 18732.83s(cpu) 
 Wed Nov 28 09:07:38 2018

        *************************************************************
        *                                                           *
        *  Thank you very much for using Q-Chem.  Have a nice day.  *
        *                                                           *
        *************************************************************


