
Running Job 1 of 1 sys_2_opt_vdz_gga.in
qchem sys_2_opt_vdz_gga.in_10677.0 /scr/c295_lal/137033/qchem10677/ 1
/usr/software/qchem_511/exe/qcprog.exe_s sys_2_opt_vdz_gga.in_10677.0 /scr/c295_lal/137033/qchem10677/
Check license passed

                  Welcome to Q-Chem
     A Quantum Leap Into The Future Of Chemistry


 Q-Chem 5.1, Q-Chem, Inc., Pleasanton, CA (2018)

 Yihan Shao,  Zhengting Gan,  E. Epifanovsky,  A. T. B. Gilbert,  M. Wormit,  
 J. Kussmann,  A. W. Lange,  A. Behn,  Jia Deng,  Xintian Feng,  D. Ghosh,  
 M. Goldey,  P. R. Horn,  L. D. Jacobson,  I. Kaliman,  T. Kus,  A. Landau,  
 Jie Liu,  E. I. Proynov,  R. M. Richard,  R. P. Steele,  E. J. Sundstrom,  
 H. L. Woodcock III,  P. M. Zimmerman,  D. Zuev,  B. Albrecht,  E. Alguire,  
 S. A. Baeppler,  D. Barton,  Z. Benda,  Y. A. Bernard,  E. J. Berquist,  
 K. B. Bravaya,  H. Burton,  D. Casanova,  Chun-Min Chang,  Yunqing Chen,  
 A. Chien,  K. D. Closser,  M. P. Coons,  S. Coriani,  S. Dasgupta,  
 A. L. Dempwolff,  M. Diedenhofen,  Hainam Do,  R. G. Edgar,  Po-Tung Fang,  
 S. Faraji,  S. Fatehi,  Qingguo Feng,  K. D. Fenk,  J. Fosso-Tande,  
 Qinghui Ge,  A. Ghysels,  G. Gidofalvi,  J. Gomes,  J. Gonthier,  A. Gunina,  
 D. Hait,  M. W. D. Hanson-Heine,  P. H. P. Harbach,  A. W. Hauser,  
 J. E. Herr,  E. G. Hohenstein,  Z. C. Holden,  Kerwin Hui,  B. C. Huynh,  
 T.-C. Jagau,  Hyunjun Ji,  B. Kaduk,  K. Khistyaev,  Jaehoon Kim,  
 P. Klunzinger,  K. Koh,  D. Kosenkov,  L. Koulias,  T. Kowalczyk,  
 C. M. Krauter,  A. Kunitsa,  Ka Un Lao,  A. Laurent,  K. V. Lawler,  
 Joonho Lee,  D. Lefrancois,  S. Lehtola,  D. S. Levine,  Yi-Pei Li,  
 You-Sheng Lin,  Fenglai Liu,  E. Livshits,  A. Luenser,  P. Manohar,  
 E. Mansoor,  S. F. Manzer,  Shan-Ping Mao,  Yuezhi Mao,  N. Mardirossian,  
 A. V. Marenich,  T. Markovich,  L. A. Martinez-Martinez,  S. A. Maurer,  
 N. J. Mayhall,  S. C. McKenzie,  J.-M. Mewes,  A. F. Morrison,  
 J. W. Mullinax,  K. Nanda,  T. S. Nguyen-Beck,  R. Olivares-Amaya,  
 J. A. Parkhill,  T. M. Perrine,  F. Plasser,  P. Pokhilko,  S. Prager,  
 A. Prociuk,  E. Ramos,  D. R. Rehn,  F. Rob,  M. Schneider,  N. Sergueev,  
 S. M. Sharada,  S. Sharma,  D. W. Small,  T. Stauch,  T. Stein,  
 Yu-Chuan Su,  A. J. W. Thom,  A. Tkatchenko,  T. Tsuchimochi,  N. M. Tubman,  
 L. Vogt,  M. L. Vidal,  O. Vydrov,  M. A. Watson,  J. Wenzel,  
 M. de Wergifosse,  T. A. Wesolowski,  A. White,  J. Witte,  A. Yamada,  
 Jun Yang,  K. Yao,  S. Yeganeh,  S. R. Yost,  Zhi-Qiang You,  A. Zech,  
 Igor Ying Zhang,  Xing Zhang,  Yan Zhao,  Ying Zhu,  B. R. Brooks,  
 G. K. L. Chan,  C. J. Cramer,  M. S. Gordon,  W. J. Hehre,  A. Klamt,  
 M. W. Schmidt,  C. D. Sherrill,  D. G. Truhlar,  A. Aspuru-Guzik,  R. Baer,  
 A. T. Bell,  N. A. Besley,  Jeng-Da Chai,  A. E. DePrince, III,  
 R. A. DiStasio Jr.,  A. Dreuw,  B. D. Dunietz,  T. R. Furlani,  
 Chao-Ping Hsu,  Yousung Jung,  Jing Kong,  D. S. Lambrecht,  WanZhen Liang,  
 C. Ochsenfeld,  V. A. Rassolov,  L. V. Slipchenko,  J. E. Subotnik,  
 T. Van Voorhis,  J. M. Herbert,  A. I. Krylov,  P. M. W. Gill,  M. Head-Gordon

 Contributors to earlier versions of Q-Chem not listed above: 
 R. D. Adamson,  B. Austin,  J. Baker,  G. J. O. Beran,  K. Brandhorst,  
 S. T. Brown,  E. F. C. Byrd,  A. K. Chakraborty,  C.-L. Cheng,  
 Siu Hung Chien,  D. M. Chipman,  D. L. Crittenden,  H. Dachsel,  
 R. J. Doerksen,  A. D. Dutoi,  L. Fusti-Molnar,  W. A. Goddard III,  
 A. Golubeva-Zadorozhnaya,  S. R. Gwaltney,  G. Hawkins,  A. Heyden,  
 S. Hirata,  G. Kedziora,  F. J. Keil,  C. Kelley,  Jihan Kim,  R. A. King,  
 R. Z. Khaliullin,  P. P. Korambath,  W. Kurlancheek,  A. M. Lee,  M. S. Lee,  
 S. V. Levchenko,  Ching Yeh Lin,  D. Liotard,  R. C. Lochan,  I. Lotan,  
 P. E. Maslen,  N. Nair,  D. P. O'Neill,  D. Neuhauser,  E. Neuscamman,  
 C. M. Oana,  R. Olson,  B. Peters,  R. Peverati,  P. A. Pieniazek,  
 Y. M. Rhee,  J. Ritchie,  M. A. Rohrdanz,  E. Rosta,  N. J. Russ,  
 H. F. Schaefer III,  N. E. Schultz,  N. Shenvi,  A. C. Simmonett,  A. Sodt,  
 D. Stuck,  K. S. Thanthiriwatte,  V. Vanovschi,  Tao Wang,  A. Warshel,  
 C. F. Williams,  Q. Wu,  X. Xu,  W. Zhang

 Please cite Q-Chem as follows:
 Y. Shao et al., Mol. Phys. 113, 184-215 (2015)
 DOI: 10.1080/00268976.2014.952696

 Q-Chem 5.1.1 for Intel X86 EM64T Linux

 Parts of Q-Chem use Armadillo 8.300.2 (Tropical Shenanigans).
 http://arma.sourceforge.net/

 Q-Chem begins on Wed Oct 31 08:40:51 2018  

Host: cub-0-15.local
0

     Scratch files written to /scr/c295_lal/137033/qchem10677//
 Aug318 |scratch|qcdevops|jenkins|workspace|build_RNUM -1
Processing $rem in /usr/software/qchem_511/config/preferences.
 MEM_TOTAL  2000 
Input Ideriv = 2
Curr. Ideriv = -1
Max.  Ideriv = 2

Checking the input file for inconsistencies... 	...done.

--------------------------------------------------------------
User input:
--------------------------------------------------------------
$molecule
3 4
O         -2.11771        2.84524        1.90186
O         -1.27741        2.18552        1.47373
Fe        -2.81544        4.11050        2.04380
$end

$rem
BASIS = VDZ
METHOD  = BLYP
JOBTYPE = OPT
MAX_SCF_CYCLES = 500
SCF_ALGORITHM = DIIS_GDM
$end
--------------------------------------------------------------
 ----------------------------------------------------------------
             Standard Nuclear Orientation (Angstroms)
    I     Atom           X                Y                Z
 ----------------------------------------------------------------
    1      O       0.6761783239    -0.2217388475    -0.0000000000
    2      O       1.7734850227     0.1254612018     0.0000000000
    3      Fe     -0.7537425682     0.0296238910     0.0000000000
 ----------------------------------------------------------------
 Molecular Point Group                 Cs    NOp =  2
 Largest Abelian Subgroup              Cs    NOp =  2
 Nuclear Repulsion Energy =   148.7611358301 hartrees
 There are       21 alpha and       18 beta electrons
 Requested basis set is VDZ
 There are 19 shells and 39 basis functions

 Total QAlloc Memory Limit   2000 MB
 Mega-Array Size       188 MB
 MEM_STATIC part       192 MB
 A cutoff of  1.0D-12 yielded    186 shell pairs
 There are       812 function pairs (       903 Cartesian)
 
 -------------------------------------------------------
 OpenMP Integral Computing Module                       
 Release: version 1.0, May 2013, Q-Chem Inc. Pittsburgh 
 -------------------------------------------------------
 Integral Job Info:
 Integral job number is                      11
 Integral operator is                         1
 short-range coefficients                     0
 long-range coefficients              100000000
 Omega coefficients                           0
 if combine SR and LR in K                    0
 Integral screening is                        0
 Integral computing path is                   2
 max size of driver memory is            800000
 size of driver memory is                593474
 size of scratch memory is             29634545
 max col of scratch BK array               1296
 max len of scratch array in speh3          155
 max len of scratch index in speh4           18
 max int batch size is                      520
 min int batch size is                       52
 fixed nKL is                                45
 max L of basis functions is                  2
 order of int derivative is                   0
 number of shells is                         19
 number of basis is                          41
 number of cartesian basis is                41
 number of contracted shell pairs           186
 number of primitive shell pairs           1017
 maxK2 (contraction) of shell pair           36
 max number of K2 of shell pair               1
 max number of CS2 of shell pair             23
 max number of PS2 of shell pair             70
 mem total for path MDJ                  515062
 -------------------------------------------------------
 Smallest overlap matrix eigenvalue = 1.30E-02

 Scale SEOQF with 1.000000e-01/1.000000e+00/1.000000e+00

 Standard Electronic Orientation quadrupole field applied
 Nucleus-field energy     =     0.0000000019 hartrees
 Guess from superposition of atomic densities
 Warning:  Energy on first SCF cycle will be non-variational
 SAD guess density has 42.000000 electrons

 -----------------------------------------------------------------------
  General SCF calculation program by
  Eric Jon Sundstrom, Paul Horn, Yuezhi Mao, Dmitri Zuev, Alec White,
  David Stuck, Shaama M.S., Shane Yost, Joonho Lee, David Small,
  Daniel Levine, Susi Lehtola, Hugh Burton, Evgeny Epifanovsky
 -----------------------------------------------------------------------
 Exchange:  B88      Correlation:  LYP
 Using SG-1 standard quadrature grid
 using 12 threads for integral computing
 -------------------------------------------------------
 OpenMP Integral computing Module                
 Release: version 1.0, May 2013, Q-Chem Inc. Pittsburgh 
 -------------------------------------------------------
 -------------------------------------------------------
 OpenMP BLAS3 based DFT computing Module                
 Release: version 1.0, May 2013, Q-Chem Inc. Pittsburgh 
 -------------------------------------------------------
 A unrestricted SCF calculation will be
 performed using DIIS, GDM
 SCF converges when RMS gradient is below 1.0e-08
 ---------------------------------------
  Cycle       Energy         DIIS error
 ---------------------------------------
    1   -1414.4574013190      8.44e-02  
    2   -1411.0523063236      3.62e-02  
    3   -1398.7284930059      1.04e-01  
    4   -1409.5412894216      5.70e-02  
    5   -1409.2153321123      5.90e-02  
    6   -1411.0317335386      3.78e-02  
    7   -1410.4869670730      4.65e-02  
    8   -1411.2918699429      3.11e-02  
    9   -1411.6164216848      1.97e-02  
   10   -1411.6797985380      1.62e-02  
   11   -1411.6841446699      1.60e-02  
   12   -1411.7488276907      1.18e-02  
   13   -1411.8180182405      5.06e-03  Done DIIS. Switching to GDM
 ---------------------------------------
  Cycle       Energy        RMS Gradient
 ---------------------------------------
    1   -1411.8180182405      4.38e-01   Descent step
    2   -1411.1025117590      2.74e+00  Line search: overstep
    3   -1411.8332713753      2.06e-02   Normal BFGS step
    4   -1411.8304022992      7.12e-02  Line search: overstep
    5   -1411.8335804624      1.11e-02   Normal BFGS step
    6   -1411.8336779067      1.27e-03   Normal BFGS step
    7   -1411.8336819663      6.62e-04   Normal BFGS step
    8   -1411.8336822960      9.41e-05   Normal BFGS step
    9   -1411.8336823520      4.85e-05   Normal BFGS step
   10   -1411.8336823551      1.19e-05   Normal BFGS step
   11   -1411.8336823553      5.37e-06   Normal BFGS step
   12   -1411.8336823554      7.35e-07   Normal BFGS step
   13   -1411.8336823554      1.02e-06   Normal BFGS step
   14   -1411.8336823554      3.84e-06   Normal BFGS step
   15   -1411.8336823554      2.55e-08   Normal BFGS step
   16   -1411.8336823554      9.96e-09  Convergence criterion met
 ---------------------------------------
 SCF time:   CPU 75.06s  wall 7.00s 
<S^2> =          4.261145458
 SCF   energy in the final basis set =    -1411.8336823554
 Total energy in the final basis set =    -1411.8336823554
 
 --------------------------------------------------------------
             Orbital Energies (a.u.) and Symmetries
 --------------------------------------------------------------
 
 Alpha MOs, Unrestricted
 -- Occupied --                  
-255.90  -30.68  -26.63  -26.63  -26.62  -19.96  -19.93   -4.43
  1 A'    2 A'    3 A'    1 A"    4 A'    5 A'    6 A'    7 A'                 
 -3.245  -3.243  -3.239  -2.231  -1.747  -1.478  -1.478  -1.431
  8 A'    2 A"    9 A'   10 A'   11 A'   12 A'    3 A"   13 A'                 
 -1.317  -1.317  -1.284  -1.283  -1.244
 14 A'    4 A"   15 A'    5 A"   16 A'                                         
 -- Virtual --                   
 -1.110  -1.108  -0.878  -0.692  -0.436  -0.312  -0.149  -0.141
  6 A"   17 A'   18 A'   19 A'   20 A'   21 A'   22 A'    7 A"                 
 -0.064  -0.043  -0.040   0.034   0.044   0.072   0.130   0.144
 23 A'   24 A'    8 A"    9 A"   25 A'   26 A'   10 A"   27 A'                 
  0.302   0.431
 28 A'   29 A'                                                                 
 
 Beta MOs, Unrestricted
 -- Occupied --                  
-255.90  -30.61  -26.58  -26.58  -26.58  -19.96  -19.95   -4.27
  1 A'    2 A'    1 A"    3 A'    4 A'    5 A'    6 A'    7 A'                 
 -3.109  -3.085  -3.084  -2.247  -1.748  -1.486  -1.486  -1.449
  8 A'    2 A"    9 A'   10 A'   11 A'    3 A"   12 A'   13 A'                 
 -1.236  -1.234
  4 A"   14 A'                                                                 
 -- Virtual --                   
 -1.164  -1.164  -1.131  -1.109  -1.093  -0.850  -0.700  -0.437
 15 A'    5 A"   16 A'    6 A"   17 A'   18 A'   19 A'   20 A'                 
 -0.275  -0.147  -0.143  -0.066   0.013   0.014   0.046   0.046
 21 A'   22 A'    7 A"   23 A'    8 A"   24 A'   25 A'    9 A"                 
  0.061   0.148   0.174   0.300   0.458
 26 A'   10 A"   27 A'   28 A'   29 A'                                         
 --------------------------------------------------------------
 
          Ground-State Mulliken Net Atomic Charges

     Atom                 Charge (a.u.)    Spin (a.u.)
  --------------------------------------------------------
      1 O                     0.110282       0.048792
      2 O                     0.756929      -0.768217
      3 Fe                    2.132789       3.719425
  --------------------------------------------------------
  Sum of atomic charges =     3.000000
  Sum of spin   charges =     3.000000

 -----------------------------------------------------------------
                    Cartesian Multipole Moments
 -----------------------------------------------------------------
    Charge (ESU x 10^10)
                14.4096
    Dipole Moment (Debye)
         X      -0.9939      Y       0.6545      Z      -0.0000
       Tot       1.1901
    Quadrupole Moments (Debye-Ang)
        XX       2.2282     XY      -0.0153     YY     -15.2838
        XZ       0.0000     YZ       0.0000     ZZ     -15.2787
    Octopole Moments (Debye-Ang^2)
       XXX       1.3499    XXY       1.0519    XYY      -4.1650
       YYY       1.0279    XXZ       0.0000    XYZ       0.0000
       YYZ      -0.0000    XZZ      -4.1789    YZZ       0.3384
       ZZZ      -0.0000
    Hexadecapole Moments (Debye-Ang^3)
      XXXX     -78.5454   XXXY       0.9298   XXYY     -20.1444
      XYYY      -0.2736   YYYY      -9.5697   XXXZ       0.0000
      XXYZ      -0.0000   XYYZ      -0.0000   YYYZ      -0.0000
      XXZZ     -19.9994   XYZZ      -0.0868   YYZZ      -2.8899
      XZZZ       0.0000   YZZZ      -0.0000   ZZZZ      -7.7752
 -----------------------------------------------------------------
 Calculating analytic gradient of the SCF energy
 Gradient of SCF Energy
            1           2           3
    1  -0.2860370  -0.1290825   0.4151195
    2   0.0564483  -0.0084691  -0.0479792
    3  -0.0000000   0.0000000   0.0000000
 Max gradient component =       4.151E-01
 RMS gradient           =       1.752E-01
 Gradient time:  CPU 6.90 s  wall 0.77 s
 Geometry Optimization Parameters
   NAtoms,    NIC,     NZ,  NCons,   NDum,   NFix, NCnnct, MaxDiis
        3       9       0       0       0       0       0       0


** GEOMETRY OPTIMIZATION IN DELOCALIZED INTERNAL COORDINATES **
   Searching for a Minimum

   Optimization Cycle:   1

                       Coordinates (Angstroms)
     ATOM                X               Y               Z
      1  O         0.6761783239   -0.2217388475    0.0000000000
      2  O         1.7734850227    0.1254612018    0.0000000000
      3  Fe       -0.7537425682    0.0296238910    0.0000000000
   Point Group: cs    Number of degrees of freedom:     3


   Energy is  -1411.833682355


 Attempting to Generate Delocalized Internal Coordinates

 ** Taking Steepest Descent Step **
 Calculated Step too Large.  Step scaled by  0.680524
 Step Taken.  Stepsize is  0.300000

                             Maximum     Tolerance    Cnvgd?
         Gradient           0.293144      0.000300      NO
         Displacement       0.199492      0.001200      NO
         Energy change     *********      0.000001      NO


 New Cartesian Coordinates Obtained by Inverse Iteration

 Displacement from previous Coordinates is:  0.285721
 ----------------------------------------------------------------
             Standard Nuclear Orientation (Angstroms)
    I     Atom           X                Y                Z
 ----------------------------------------------------------------
    1      O       0.7105152024    -0.2141023911     0.0000000000
    2      O       1.8587947250     0.1209382250     0.0000000000
    3      Fe     -0.8733891490     0.0265104113     0.0000000000
 ----------------------------------------------------------------
 Molecular Point Group                 Cs    NOp =  2
 Largest Abelian Subgroup              Cs    NOp =  2
 Nuclear Repulsion Energy =   137.2792858168 hartrees
 There are       21 alpha and       18 beta electrons
 Applying Cartesian multipole field
    Component          Value
    ---------          -----
     (2,0,0)        1.00000E-11
     (0,2,0)        2.00000E-10
     (0,0,2)       -3.00000E-10
 Nucleus-field energy     =     0.0000000022 hartrees
 Requested basis set is VDZ
 There are 19 shells and 39 basis functions
 A cutoff of  1.0D-12 yielded    184 shell pairs
 There are       808 function pairs (       899 Cartesian)
 Smallest overlap matrix eigenvalue = 1.64E-02
 Guess MOs from SCF MO coefficient file

 -----------------------------------------------------------------------
  General SCF calculation program by
  Eric Jon Sundstrom, Paul Horn, Yuezhi Mao, Dmitri Zuev, Alec White,
  David Stuck, Shaama M.S., Shane Yost, Joonho Lee, David Small,
  Daniel Levine, Susi Lehtola, Hugh Burton, Evgeny Epifanovsky
 -----------------------------------------------------------------------
 Exchange:  B88      Correlation:  LYP
 Using SG-1 standard quadrature grid
 using 12 threads for integral computing
 -------------------------------------------------------
 OpenMP Integral computing Module                
 Release: version 1.0, May 2013, Q-Chem Inc. Pittsburgh 
 -------------------------------------------------------
 -------------------------------------------------------
 OpenMP BLAS3 based DFT computing Module                
 Release: version 1.0, May 2013, Q-Chem Inc. Pittsburgh 
 -------------------------------------------------------
 A unrestricted SCF calculation will be
 performed using DIIS, GDM
 SCF converges when RMS gradient is below 1.0e-08
 ---------------------------------------
  Cycle       Energy         DIIS error
 ---------------------------------------
    1   -1411.9133843127      3.93e-03  
    2   -1411.8894275622      7.74e-03  Done DIIS. Switching to GDM
 ---------------------------------------
  Cycle       Energy        RMS Gradient
 ---------------------------------------
    1   -1411.8894275622      4.58e-01   Descent step
    2   -1411.4369859078      2.23e+00  Line search: overstep
    3   -1411.9132131067      1.96e-01   Descent step
    4   -1411.3454858949      1.68e+00  Line search: overstep
    5   -1411.9219318312      8.66e-02   Normal BFGS step
    6   -1411.9118248446      2.39e-01  Line search: overstep
    7   -1411.9254464111      2.18e-02   Normal BFGS step
    8   -1411.9258755396      4.16e-03   Normal BFGS step
    9   -1411.9259237611      1.96e-03   Normal BFGS step
   10   -1411.9259324366      3.68e-04   Normal BFGS step
   11   -1411.9259330596      1.12e-04   Normal BFGS step
   12   -1411.9259331021      1.92e-05   Normal BFGS step
   13   -1411.9259331036      6.78e-06   Normal BFGS step
   14   -1411.9259331038      6.47e-07   Normal BFGS step
   15   -1411.9259331038      5.03e-07   Normal BFGS step
   16   -1411.9259331038      5.24e-06   Normal BFGS step
   17   -1411.9259331038      5.96e-07   Normal BFGS step
   18   -1411.9259331038      2.40e-06   Normal BFGS step
   19   -1411.9259331038      7.45e-09  Convergence criterion met
 ---------------------------------------
 SCF time:   CPU 49.38s  wall 5.00s 
<S^2> =          4.544031000
 SCF   energy in the final basis set =    -1411.9259331038
 Total energy in the final basis set =    -1411.9259331038
 
 --------------------------------------------------------------
             Orbital Energies (a.u.) and Symmetries
 --------------------------------------------------------------
 
 Alpha MOs, Unrestricted
 -- Occupied --                  
-255.89  -30.66  -26.62  -26.62  -26.60  -19.91  -19.91   -4.41
  1 A'    2 A'    3 A'    1 A"    4 A'    5 A'    6 A'    7 A'                 
 -3.226  -3.224  -3.208  -2.144  -1.684  -1.413  -1.400  -1.391
  8 A'    2 A"    9 A'   10 A'   11 A'   12 A'    3 A"   13 A'                 
 -1.299  -1.299  -1.268  -1.266  -1.238
 14 A'    4 A"   15 A'    5 A"   16 A'                                         
 -- Virtual --                   
 -1.094  -1.093  -0.885  -0.732  -0.436  -0.301  -0.120  -0.110
  6 A"   17 A'   18 A'   19 A'   20 A'   21 A'   22 A'    7 A"                 
 -0.023  -0.019  -0.019   0.033   0.046   0.099   0.185   0.190
 23 A'    8 A"   24 A'    9 A"   25 A'   26 A'   10 A"   27 A'                 
  0.298   0.399
 28 A'   29 A'                                                                 
 
 Beta MOs, Unrestricted
 -- Occupied --                  
-255.89  -30.59  -26.56  -26.56  -26.56  -19.93  -19.91   -4.24
  1 A'    2 A'    3 A'    1 A"    4 A'    5 A'    6 A'    7 A'                 
 -3.062  -3.058  -3.058  -2.167  -1.698  -1.434  -1.420  -1.411
  8 A'    9 A'    2 A"   10 A'   11 A'   12 A'    3 A"   13 A'                 
 -1.201  -1.201
 14 A'    4 A"                                                                 
 -- Virtual --                   
 -1.140  -1.140  -1.116  -1.106  -1.088  -0.860  -0.744  -0.432
 15 A'    5 A"   16 A'    6 A"   17 A'   18 A'   19 A'   20 A'                 
 -0.269  -0.117  -0.111  -0.032   0.020   0.030   0.057   0.057
 21 A'   22 A'    7 A"   23 A'    8 A"   24 A'   25 A'    9 A"                 
  0.087   0.199   0.206   0.309   0.419
 26 A'   10 A"   27 A'   28 A'   29 A'                                         
 --------------------------------------------------------------
 
          Ground-State Mulliken Net Atomic Charges

     Atom                 Charge (a.u.)    Spin (a.u.)
  --------------------------------------------------------
      1 O                     0.076384      -0.037866
      2 O                     0.772502      -0.938340
      3 Fe                    2.151114       3.976206
  --------------------------------------------------------
  Sum of atomic charges =     3.000000
  Sum of spin   charges =     3.000000

 -----------------------------------------------------------------
                    Cartesian Multipole Moments
 -----------------------------------------------------------------
    Charge (ESU x 10^10)
                14.4096
    Dipole Moment (Debye)
         X      -1.7808      Y       0.6323      Z      -0.0000
       Tot       1.8897
    Quadrupole Moments (Debye-Ang)
        XX       5.8112     XY       0.0823     YY     -15.3337
        XZ       0.0000     YZ      -0.0000     ZZ     -15.3648
    Octopole Moments (Debye-Ang^2)
       XXX       3.4492    XXY       1.3349    XYY      -3.8756
       YYY       1.0939    XXZ      -0.0000    XYZ       0.0000
       YYZ       0.0000    XZZ      -3.9084    YZZ       0.3600
       ZZZ       0.0000
    Hexadecapole Moments (Debye-Ang^3)
      XXXX     -84.1110   XXXY       1.4061   XXYY     -22.8179
      XYYY      -0.1494   YYYY      -9.4864   XXXZ       0.0000
      XXYZ      -0.0000   XYYZ       0.0000   YYYZ      -0.0000
      XXZZ     -22.7515   XYZZ      -0.0504   YYZZ      -2.8868
      XZZZ       0.0000   YZZZ      -0.0000   ZZZZ      -7.8358
 -----------------------------------------------------------------
 Calculating analytic gradient of the SCF energy
 Gradient of SCF Energy
            1           2           3
    1  -0.1478422  -0.0462325   0.1940748
    2   0.0033072   0.0093837  -0.0126909
    3   0.0000000  -0.0000000  -0.0000000
 Max gradient component =       1.941E-01
 RMS gradient           =       8.295E-02
 Gradient time:  CPU 6.68 s  wall 0.60 s
 Geometry Optimization Parameters
   NAtoms,    NIC,     NZ,  NCons,   NDum,   NFix, NCnnct, MaxDiis
        3       9       0       0       0       0       0       0

 Cartesian Hessian Update
 Hessian Updated using BFGS Update


** GEOMETRY OPTIMIZATION IN DELOCALIZED INTERNAL COORDINATES **
   Searching for a Minimum

   Optimization Cycle:   2

                       Coordinates (Angstroms)
     ATOM                X               Y               Z
      1  O         0.7105152024   -0.2141023911    0.0000000000
      2  O         1.8587947250    0.1209382250    0.0000000000
      3  Fe       -0.8733891490    0.0265104113    0.0000000000
   Point Group: cs    Number of degrees of freedom:     3


   Energy is  -1411.925933104

 Hessian Updated using BFGS Update

  3 Hessian modes will be used to form the next step
  Hessian Eigenvalues:
     0.252029    0.794936    1.304625

 Minimum Search - Taking Simple RFO Step
 Searching for Lamda that Minimizes Along All modes
 Value Taken    Lamda =  -0.05308447
 Step Taken.  Stepsize is  0.274067

                             Maximum     Tolerance    Cnvgd?
         Gradient           0.143636      0.000300      NO
         Displacement       0.237063      0.001200      NO
         Energy change     -0.092251      0.000001      NO


 New Cartesian Coordinates Obtained by Inverse Iteration

 Displacement from previous Coordinates is:  0.285755
 ----------------------------------------------------------------
             Standard Nuclear Orientation (Angstroms)
    I     Atom           X                Y                Z
 ----------------------------------------------------------------
    1      O       0.7378635488    -0.1530696879     0.0000000000
    2      O       1.9348796743     0.0857703974     0.0000000000
    3      Fe     -0.9768224447     0.0006455358     0.0000000000
 ----------------------------------------------------------------
 Molecular Point Group                 Cs    NOp =  2
 Largest Abelian Subgroup              Cs    NOp =  2
 Nuclear Repulsion Energy =   129.4677587653 hartrees
 There are       21 alpha and       18 beta electrons
 Applying Cartesian multipole field
    Component          Value
    ---------          -----
     (2,0,0)        1.00000E-11
     (0,2,0)        2.00000E-10
     (0,0,2)       -3.00000E-10
 Nucleus-field energy     =     0.0000000023 hartrees
 Requested basis set is VDZ
 There are 19 shells and 39 basis functions
 A cutoff of  1.0D-12 yielded    182 shell pairs
 There are       800 function pairs (       890 Cartesian)
 Smallest overlap matrix eigenvalue = 1.87E-02
 Guess MOs from SCF MO coefficient file

 -----------------------------------------------------------------------
  General SCF calculation program by
  Eric Jon Sundstrom, Paul Horn, Yuezhi Mao, Dmitri Zuev, Alec White,
  David Stuck, Shaama M.S., Shane Yost, Joonho Lee, David Small,
  Daniel Levine, Susi Lehtola, Hugh Burton, Evgeny Epifanovsky
 -----------------------------------------------------------------------
 Exchange:  B88      Correlation:  LYP
 Using SG-1 standard quadrature grid
 using 12 threads for integral computing
 -------------------------------------------------------
 OpenMP Integral computing Module                
 Release: version 1.0, May 2013, Q-Chem Inc. Pittsburgh 
 -------------------------------------------------------
 -------------------------------------------------------
 OpenMP BLAS3 based DFT computing Module                
 Release: version 1.0, May 2013, Q-Chem Inc. Pittsburgh 
 -------------------------------------------------------
 A unrestricted SCF calculation will be
 performed using DIIS, GDM
 SCF converges when RMS gradient is below 1.0e-08
 ---------------------------------------
  Cycle       Energy         DIIS error
 ---------------------------------------
    1   -1411.9518024541      3.16e-03  
    2   -1411.9363930162      6.53e-03  Done DIIS. Switching to GDM
 ---------------------------------------
  Cycle       Energy        RMS Gradient
 ---------------------------------------
    1   -1411.9363930162      5.20e-01   Descent step
    2   -1411.5120537549      1.85e+00  Line search: overstep
    3   -1411.9579981264      1.87e-01   Normal BFGS step
    4   -1411.7801591522      9.99e-01  Line search: overstep
    5   -1411.9635210092      9.17e-02   Normal BFGS step
    6   -1411.9646476630      7.71e-03   Normal BFGS step
    7   -1411.9646924394      1.52e-03   Normal BFGS step
    8   -1411.9646965042      7.93e-04   Normal BFGS step
    9   -1411.9646970514      1.45e-04   Normal BFGS step
   10   -1411.9646971134      4.98e-05   Normal BFGS step
   11   -1411.9646971170      1.06e-05   Normal BFGS step
   12   -1411.9646971172      4.45e-06   Normal BFGS step
   13   -1411.9646971172      1.06e-05   Normal BFGS step
   14   -1411.9646971172      6.05e-07   Normal BFGS step
   15   -1411.9646971172      5.65e-07   Normal BFGS step
   16   -1411.9646971172      5.91e-07   Normal BFGS step
   17   -1411.9646971172      8.59e-07   Normal BFGS step
   18   -1411.9646971172      5.46e-08   Normal BFGS step
   19   -1411.9646971172      7.12e-08   Normal BFGS step
   20   -1411.9646971172      7.37e-08   Normal BFGS step
   21   -1411.9646971172      8.07e-09  Convergence criterion met
 ---------------------------------------
 SCF time:   CPU 52.31s  wall 5.00s 
<S^2> =          4.682620493
 SCF   energy in the final basis set =    -1411.9646971172
 Total energy in the final basis set =    -1411.9646971172
 
 --------------------------------------------------------------
             Orbital Energies (a.u.) and Symmetries
 --------------------------------------------------------------
 
 Alpha MOs, Unrestricted
 -- Occupied --                  
-255.87  -30.65  -26.60  -26.60  -26.59  -19.89  -19.88   -4.39
  1 A'    2 A'    3 A'    1 A"    4 A'    5 A'    6 A'    7 A'                 
 -3.210  -3.209  -3.187  -2.091  -1.641  -1.382  -1.353  -1.351
  8 A'    2 A"    9 A'   10 A'   11 A'   12 A'    3 A"   13 A'                 
 -1.284  -1.284  -1.254  -1.252  -1.233
 14 A'    4 A"   15 A'    5 A"   16 A'                                         
 -- Virtual --                   
 -1.078  -1.078  -0.889  -0.742  -0.432  -0.265  -0.103  -0.098
  6 A"   17 A'   18 A'   19 A'   20 A'   21 A'   22 A'    7 A"                 
 -0.004  -0.004   0.004   0.040   0.046   0.125   0.217   0.219
 23 A'    8 A"   24 A'    9 A"   25 A'   26 A'   27 A'   10 A"                 
  0.254   0.386
 28 A'   29 A'                                                                 
 
 Beta MOs, Unrestricted
 -- Occupied --                  
-255.87  -30.57  -26.55  -26.55  -26.54  -19.92  -19.88   -4.22
  1 A'    2 A'    3 A'    1 A"    4 A'    5 A'    6 A'    7 A'                 
 -3.039  -3.039  -3.036  -2.118  -1.663  -1.404  -1.380  -1.378
  8 A'    2 A"    9 A'   10 A'   11 A'   12 A'    3 A"   13 A'                 
 -1.174  -1.174
 14 A'    4 A"                                                                 
 -- Virtual --                   
 -1.123  -1.123  -1.102  -1.099  -1.082  -0.866  -0.755  -0.429
  5 A"   15 A'   16 A'    6 A"   17 A'   18 A'   19 A'   20 A'                 
 -0.239  -0.098  -0.095  -0.009   0.025   0.031   0.071   0.071
 21 A'   22 A'    7 A"   23 A'    8 A"   24 A'    9 A"   25 A'                 
  0.120   0.225   0.231   0.282   0.391
 26 A'   27 A'   10 A"   28 A'   29 A'                                         
 --------------------------------------------------------------
 
          Ground-State Mulliken Net Atomic Charges

     Atom                 Charge (a.u.)    Spin (a.u.)
  --------------------------------------------------------
      1 O                     0.070684      -0.098349
      2 O                     0.773438      -0.981224
      3 Fe                    2.155878       4.079574
  --------------------------------------------------------
  Sum of atomic charges =     3.000000
  Sum of spin   charges =     3.000000

 -----------------------------------------------------------------
                    Cartesian Multipole Moments
 -----------------------------------------------------------------
    Charge (ESU x 10^10)
                14.4096
    Dipole Moment (Debye)
         X      -2.4689      Y       0.2651      Z       0.0000
       Tot       2.4831
    Quadrupole Moments (Debye-Ang)
        XX       9.0412     XY       0.2767     YY     -15.3809
        XZ       0.0000     YZ      -0.0000     ZZ     -15.3980
    Octopole Moments (Debye-Ang^2)
       XXX       4.6776    XXY       1.0734    XYY      -3.6309
       YYY       1.1847    XXZ      -0.0000    XYZ      -0.0000
       YYZ       0.0000    XZZ      -3.6531    YZZ       0.3931
       ZZZ       0.0000
    Hexadecapole Moments (Debye-Ang^3)
      XXXX     -88.7275   XXXY       1.0851   XXYY     -25.3897
      XYYY      -0.4066   YYYY      -8.6835   XXXZ       0.0000
      XXYZ      -0.0000   XYYZ       0.0000   YYYZ      -0.0000
      XXZZ     -25.3754   XYZZ      -0.1370   YYZZ      -2.7564
      XZZZ       0.0000   YZZZ      -0.0000   ZZZZ      -7.8555
 -----------------------------------------------------------------
 Calculating analytic gradient of the SCF energy
 Gradient of SCF Energy
            1           2           3
    1  -0.0957015  -0.0038634   0.0995649
    2  -0.0105076   0.0110143  -0.0005067
    3   0.0000000   0.0000000  -0.0000000
 Max gradient component =       9.956E-02
 RMS gradient           =       4.633E-02
 Gradient time:  CPU 6.58 s  wall 0.60 s
 Geometry Optimization Parameters
   NAtoms,    NIC,     NZ,  NCons,   NDum,   NFix, NCnnct, MaxDiis
        3       9       0       0       0       0       0       0

 Cartesian Hessian Update
 Hessian Updated using BFGS Update


** GEOMETRY OPTIMIZATION IN DELOCALIZED INTERNAL COORDINATES **
   Searching for a Minimum

   Optimization Cycle:   3

                       Coordinates (Angstroms)
     ATOM                X               Y               Z
      1  O         0.7378635488   -0.1530696879    0.0000000000
      2  O         1.9348796743    0.0857703974    0.0000000000
      3  Fe       -0.9768224447    0.0006455358    0.0000000000
   Point Group: cs    Number of degrees of freedom:     3


   Energy is  -1411.964697117

 Hessian Updated using BFGS Update

  3 Hessian modes will be used to form the next step
  Hessian Eigenvalues:
     0.224375    0.475889    1.327045

 Minimum Search - Taking Simple RFO Step
 Searching for Lamda that Minimizes Along All modes
 Value Taken    Lamda =  -0.02560058
 Step Taken.  Stepsize is  0.263610

                             Maximum     Tolerance    Cnvgd?
         Gradient           0.068735      0.000300      NO
         Displacement       0.220069      0.001200      NO
         Energy change     -0.038764      0.000001      NO


 New Cartesian Coordinates Obtained by Inverse Iteration

 Displacement from previous Coordinates is:  0.261781
 ----------------------------------------------------------------
             Standard Nuclear Orientation (Angstroms)
    I     Atom           X                Y                Z
 ----------------------------------------------------------------
    1      O       0.7698905988    -0.0853111854     0.0000000000
    2      O       1.9919818869     0.0458552995     0.0000000000
    3      Fe     -1.0659517072    -0.0271978688     0.0000000000
 ----------------------------------------------------------------
 Molecular Point Group                 Cs    NOp =  2
 Largest Abelian Subgroup              Cs    NOp =  2
 Nuclear Repulsion Energy =   123.4641068442 hartrees
 There are       21 alpha and       18 beta electrons
 Applying Cartesian multipole field
    Component          Value
    ---------          -----
     (2,0,0)        1.00000E-11
     (0,2,0)        2.00000E-10
     (0,0,2)       -3.00000E-10
 Nucleus-field energy     =     0.0000000024 hartrees
 Requested basis set is VDZ
 There are 19 shells and 39 basis functions
 A cutoff of  1.0D-12 yielded    180 shell pairs
 There are       788 function pairs (       878 Cartesian)
 Smallest overlap matrix eigenvalue = 1.96E-02
 Guess MOs from SCF MO coefficient file

 -----------------------------------------------------------------------
  General SCF calculation program by
  Eric Jon Sundstrom, Paul Horn, Yuezhi Mao, Dmitri Zuev, Alec White,
  David Stuck, Shaama M.S., Shane Yost, Joonho Lee, David Small,
  Daniel Levine, Susi Lehtola, Hugh Burton, Evgeny Epifanovsky
 -----------------------------------------------------------------------
 Exchange:  B88      Correlation:  LYP
 Using SG-1 standard quadrature grid
 using 12 threads for integral computing
 -------------------------------------------------------
 OpenMP Integral computing Module                
 Release: version 1.0, May 2013, Q-Chem Inc. Pittsburgh 
 -------------------------------------------------------
 -------------------------------------------------------
 OpenMP BLAS3 based DFT computing Module                
 Release: version 1.0, May 2013, Q-Chem Inc. Pittsburgh 
 -------------------------------------------------------
 A unrestricted SCF calculation will be
 performed using DIIS, GDM
 SCF converges when RMS gradient is below 1.0e-08
 ---------------------------------------
  Cycle       Energy         DIIS error
 ---------------------------------------
    1   -1411.9723898366      2.73e-03  
    2   -1411.9473353906      7.16e-03  Done DIIS. Switching to GDM
 ---------------------------------------
  Cycle       Energy        RMS Gradient
 ---------------------------------------
    1   -1411.9473353906      6.34e-01   Descent step
    2   -1411.5790387763      1.41e+00  Line search: overstep
    3   -1411.9765324362      2.17e-01   Normal BFGS step
    4   -1411.8159060923      8.79e-01  Line search: overstep
    5   -1411.9815193778      1.30e-01   Normal BFGS step
    6   -1411.9831592351      1.49e-02   Normal BFGS step
    7   -1411.9832270914      1.55e-03   Normal BFGS step
    8   -1411.9832315434      7.68e-04   Normal BFGS step
    9   -1411.9832323185      1.35e-04   Normal BFGS step
   10   -1411.9832323969      1.22e-04   Normal BFGS step
   11   -1411.9832324026      1.15e-05   Normal BFGS step
   12   -1411.9832324027      2.64e-06   Normal BFGS step
   13   -1411.9832324027      5.64e-06   Normal BFGS step
   14   -1411.9832324027      1.09e-06   Normal BFGS step
   15   -1411.9832324027      3.35e-07   Normal BFGS step
   16   -1411.9832324027      2.95e-07   Normal BFGS step
   17   -1411.9832324027      4.67e-07   Normal BFGS step
   18   -1411.9832324027      1.36e-07   Normal BFGS step
   19   -1411.9832324027      2.91e-07   Normal BFGS step
   20   -1411.9832324027      3.76e-08   Normal BFGS step
  /scratch/qcdevops/jenkins/workspace/build_qchem_linux_distrib/tags/qc511/qchem/libgscf/libgscf/opt/gdm.C::WARNING energy changes are now smaller than effective accuracy.
  /scratch/qcdevops/jenkins/workspace/build_qchem_linux_distrib/tags/qc511/qchem/libgscf/libgscf/opt/gdm.C::        calculation will continue, but THRESH should be increased
  /scratch/qcdevops/jenkins/workspace/build_qchem_linux_distrib/tags/qc511/qchem/libgscf/libgscf/opt/gdm.C::        or SCF_CONVERGENCE decreased. 
  /scratch/qcdevops/jenkins/workspace/build_qchem_linux_distrib/tags/qc511/qchem/libgscf/libgscf/opt/gdm.C::        effective_thresh = 1.49e-09
   21   -1411.9832324027      2.54e-08   Normal BFGS step
   22   -1411.9832324027      5.96e-09  Convergence criterion met
 ---------------------------------------
 SCF time:   CPU 58.52s  wall 5.00s 
<S^2> =          4.743854974
 SCF   energy in the final basis set =    -1411.9832324027
 Total energy in the final basis set =    -1411.9832324027
 
 --------------------------------------------------------------
             Orbital Energies (a.u.) and Symmetries
 --------------------------------------------------------------
 
 Alpha MOs, Unrestricted
 -- Occupied --                  
-255.86  -30.63  -26.59  -26.59  -26.57  -19.87  -19.86   -4.37
  1 A'    2 A'    3 A'    1 A"    4 A'    5 A'    6 A'    7 A'                 
 -3.194  -3.194  -3.169  -2.063  -1.608  -1.359  -1.322  -1.322
  8 A'    2 A"    9 A'   10 A'   11 A'   12 A'    3 A"   13 A'                 
 -1.270  -1.270  -1.241  -1.240  -1.227
 14 A'    4 A"   15 A'    5 A"   16 A'                                         
 -- Virtual --                   
 -1.063  -1.063  -0.892  -0.737  -0.429  -0.206  -0.093  -0.092
  6 A"   17 A'   18 A'   19 A'   20 A'   21 A'   22 A'    7 A"                 
  0.008   0.008   0.021   0.050   0.052   0.143   0.200   0.236
 23 A'    8 A"   24 A'    9 A"   25 A'   26 A'   27 A'   28 A'                 
  0.237   0.372
 10 A"   29 A'                                                                 
 
 Beta MOs, Unrestricted
 -- Occupied --                  
-255.86  -30.56  -26.53  -26.53  -26.52  -19.90  -19.86   -4.20
  1 A'    2 A'    3 A'    1 A"    4 A'    5 A'    6 A'    7 A'                 
 -3.023  -3.023  -3.016  -2.091  -1.634  -1.380  -1.355  -1.355
  8 A'    2 A"    9 A'   10 A'   11 A'   12 A'    3 A"   13 A'                 
 -1.150  -1.150
 14 A'    4 A"                                                                 
 -- Virtual --                   
 -1.108  -1.108  -1.092  -1.092  -1.074  -0.869  -0.751  -0.426
  5 A"   15 A'   16 A'    6 A"   17 A'   18 A'   19 A'   20 A'                 
 -0.189  -0.087  -0.086   0.008   0.034   0.036   0.082   0.083
 21 A'   22 A'    7 A"   23 A'    8 A"   24 A'    9 A"   25 A'                 
  0.147   0.230   0.248   0.249   0.366
 26 A'   27 A'   10 A"   28 A'   29 A'                                         
 --------------------------------------------------------------
 
          Ground-State Mulliken Net Atomic Charges

     Atom                 Charge (a.u.)    Spin (a.u.)
  --------------------------------------------------------
      1 O                     0.085995      -0.156396
      2 O                     0.765885      -0.962418
      3 Fe                    2.148120       4.118814
  --------------------------------------------------------
  Sum of atomic charges =     3.000000
  Sum of spin   charges =     3.000000

 -----------------------------------------------------------------
                    Cartesian Multipole Moments
 -----------------------------------------------------------------
    Charge (ESU x 10^10)
                14.4096
    Dipole Moment (Debye)
         X      -3.0748      Y      -0.1493      Z      -0.0000
       Tot       3.0784
    Quadrupole Moments (Debye-Ang)
        XX      11.6896     XY       0.4673     YY     -15.3847
        XZ      -0.0000     YZ       0.0000     ZZ     -15.3968
    Octopole Moments (Debye-Ang^2)
       XXX       4.7849    XXY       0.4845    XYY      -3.4180
       YYY       1.2564    XXZ       0.0000    XYZ      -0.0000
       YYZ      -0.0000    XZZ      -3.4165    YZZ       0.4186
       ZZZ      -0.0000
    Hexadecapole Moments (Debye-Ang^3)
      XXXX     -93.5948   XXXY       0.4344   XXYY     -27.7503
      XYYY      -0.7782   YYYY      -8.1288   XXXZ      -0.0000
      XXYZ      -0.0000   XYYZ      -0.0000   YYYZ       0.0000
      XXZZ     -27.7495   XYZZ      -0.2600   YYZZ      -2.6620
      XZZZ      -0.0000   YZZZ       0.0000   ZZZZ      -7.8429
 -----------------------------------------------------------------
 Calculating analytic gradient of the SCF energy
 Gradient of SCF Energy
            1           2           3
    1  -0.0693272   0.0155529   0.0537743
    2  -0.0079975   0.0062949   0.0017026
    3  -0.0000000  -0.0000000   0.0000000
 Max gradient component =       6.933E-02
 RMS gradient           =       2.990E-02
 Gradient time:  CPU 6.72 s  wall 0.61 s
 Geometry Optimization Parameters
   NAtoms,    NIC,     NZ,  NCons,   NDum,   NFix, NCnnct, MaxDiis
        3       9       0       0       0       0       0       0

 Cartesian Hessian Update
 Hessian Updated using BFGS Update


** GEOMETRY OPTIMIZATION IN DELOCALIZED INTERNAL COORDINATES **
   Searching for a Minimum

   Optimization Cycle:   4

                       Coordinates (Angstroms)
     ATOM                X               Y               Z
      1  O         0.7698905988   -0.0853111854    0.0000000000
      2  O         1.9919818869    0.0458552995    0.0000000000
      3  Fe       -1.0659517072   -0.0271978688    0.0000000000
   Point Group: cs    Number of degrees of freedom:     3


   Energy is  -1411.983232403

 Hessian Updated using BFGS Update

  3 Hessian modes will be used to form the next step
  Hessian Eigenvalues:
     0.162564    0.341291    1.343313

 Minimum Search - Taking Simple RFO Step
 Searching for Lamda that Minimizes Along All modes
 Value Taken    Lamda =  -0.01368673
 Step Taken.  Stepsize is  0.259272

                             Maximum     Tolerance    Cnvgd?
         Gradient           0.049264      0.000300      NO
         Displacement       0.196560      0.001200      NO
         Energy change     -0.018535      0.000001      NO


 New Cartesian Coordinates Obtained by Inverse Iteration

 Displacement from previous Coordinates is:  0.236157
 ----------------------------------------------------------------
             Standard Nuclear Orientation (Angstroms)
    I     Atom           X                Y                Z
 ----------------------------------------------------------------
    1      O       0.8093272702    -0.0236170914     0.0000000000
    2      O       2.0335191415     0.0090690121     0.0000000000
    3      Fe     -1.1469256333    -0.0521056755     0.0000000000
 ----------------------------------------------------------------
 Molecular Point Group                 Cs    NOp =  2
 Largest Abelian Subgroup              Cs    NOp =  2
 Nuclear Repulsion Energy =   118.5159953912 hartrees
 There are       21 alpha and       18 beta electrons
 Applying Cartesian multipole field
    Component          Value
    ---------          -----
     (2,0,0)        1.00000E-11
     (0,2,0)        2.00000E-10
     (0,0,2)       -3.00000E-10
 Nucleus-field energy     =     0.0000000026 hartrees
 Requested basis set is VDZ
 There are 19 shells and 39 basis functions
 A cutoff of  1.0D-12 yielded    180 shell pairs
 There are       788 function pairs (       878 Cartesian)
 Smallest overlap matrix eigenvalue = 1.93E-02
 Guess MOs from SCF MO coefficient file

 -----------------------------------------------------------------------
  General SCF calculation program by
  Eric Jon Sundstrom, Paul Horn, Yuezhi Mao, Dmitri Zuev, Alec White,
  David Stuck, Shaama M.S., Shane Yost, Joonho Lee, David Small,
  Daniel Levine, Susi Lehtola, Hugh Burton, Evgeny Epifanovsky
 -----------------------------------------------------------------------
 Exchange:  B88      Correlation:  LYP
 Using SG-1 standard quadrature grid
 using 12 threads for integral computing
 -------------------------------------------------------
 OpenMP Integral computing Module                
 Release: version 1.0, May 2013, Q-Chem Inc. Pittsburgh 
 -------------------------------------------------------
 -------------------------------------------------------
 OpenMP BLAS3 based DFT computing Module                
 Release: version 1.0, May 2013, Q-Chem Inc. Pittsburgh 
 -------------------------------------------------------
 A unrestricted SCF calculation will be
 performed using DIIS, GDM
 SCF converges when RMS gradient is below 1.0e-08
 ---------------------------------------
  Cycle       Energy         DIIS error
 ---------------------------------------
    1   -1411.9851029046      2.34e-03  
    2   -1411.9395697300      8.48e-03  Done DIIS. Switching to GDM
 ---------------------------------------
  Cycle       Energy        RMS Gradient
 ---------------------------------------
    1   -1411.9395697300      8.27e-01   Descent step
    2   -1411.6606671633      7.89e-01  Line search: overstep
    3   -1411.9865732750      2.45e-01   Normal BFGS step
    4   -1411.8526072317      9.99e-01  Line search: overstep
    5   -1411.9910416255      1.63e-01   Normal BFGS step
    6   -1411.9932151432      2.47e-02   Normal BFGS step
    7   -1411.9933563761      3.02e-03   Normal BFGS step
    8   -1411.9933731560      2.54e-03   Normal BFGS step
    9   -1411.9933765572      5.25e-04   Normal BFGS step
   10   -1411.9933770304      4.86e-04   Normal BFGS step
   11   -1411.9933770730      2.84e-05   Normal BFGS step
   12   -1411.9933770755      1.09e-05   Normal BFGS step
   13   -1411.9933770759      7.79e-06   Normal BFGS step
   14   -1411.9933770761      4.26e-06   Normal BFGS step
   15   -1411.9933770762      5.24e-06   Normal BFGS step
   16   -1411.9933770762      9.94e-06   Normal BFGS step
   17   -1411.9933770762      7.55e-07   Normal BFGS step
   18   -1411.9933770762      3.38e-07   Normal BFGS step
   19   -1411.9933770762      1.39e-06   Normal BFGS step
   20   -1411.9933770762      2.08e-07   Normal BFGS step
   21   -1411.9933770762      2.96e-07   Normal BFGS step
   22   -1411.9933770762      9.12e-10  Convergence criterion met
 ---------------------------------------
 SCF time:   CPU 61.63s  wall 5.00s 
<S^2> =          4.763745430
 SCF   energy in the final basis set =    -1411.9933770762
 Total energy in the final basis set =    -1411.9933770762
 
 --------------------------------------------------------------
             Orbital Energies (a.u.) and Symmetries
 --------------------------------------------------------------
 
 Alpha MOs, Unrestricted
 -- Occupied --                  
-255.84  -30.61  -26.57  -26.57  -26.55  -19.86  -19.84   -4.36
  1 A'    2 A'    3 A'    1 A"    4 A'    5 A'    6 A'    7 A'                 
 -3.178  -3.178  -3.152  -2.053  -1.578  -1.339  -1.303  -1.303
  8 A'    2 A"    9 A'   10 A'   11 A'   12 A'    3 A"   13 A'                 
 -1.255  -1.255  -1.227  -1.227  -1.220
 14 A'    4 A"   15 A'    5 A"   16 A'                                         
 -- Virtual --                   
 -1.049  -1.049  -0.893  -0.719  -0.426  -0.129  -0.085  -0.085
  6 A"   17 A'   18 A'   19 A'   20 A'   21 A'   22 A'    7 A"                 
  0.019   0.019   0.038   0.061   0.061   0.128   0.174   0.245
  8 A"   23 A'   24 A'    9 A"   25 A'   26 A'   27 A'   28 A'                 
  0.245   0.369
 10 A"   29 A'                                                                 
 
 Beta MOs, Unrestricted
 -- Occupied --                  
-255.84  -30.54  -26.51  -26.51  -26.50  -19.89  -19.85   -4.19
  1 A'    2 A'    3 A'    1 A"    4 A'    5 A'    6 A'    7 A'                 
 -3.007  -3.007  -2.999  -2.081  -1.608  -1.360  -1.340  -1.340
  8 A'    2 A"    9 A'   10 A'   11 A'   12 A'    3 A"   13 A'                 
 -1.128  -1.128
  4 A"   14 A'                                                                 
 -- Virtual --                   
 -1.093  -1.093  -1.084  -1.084  -1.064  -0.868  -0.736  -0.418
 15 A'    5 A"    6 A"   16 A'   17 A'   18 A'   19 A'   20 A'                 
 -0.126  -0.079  -0.079   0.026   0.044   0.044   0.093   0.094
 21 A'   22 A'    7 A"   23 A'    8 A"   24 A'    9 A"   25 A'                 
  0.169   0.188   0.255   0.255   0.357
 26 A'   27 A'   28 A'   10 A"   29 A'                                         
 --------------------------------------------------------------
 
          Ground-State Mulliken Net Atomic Charges

     Atom                 Charge (a.u.)    Spin (a.u.)
  --------------------------------------------------------
      1 O                     0.119281      -0.215009
      2 O                     0.750831      -0.909727
      3 Fe                    2.129888       4.124736
  --------------------------------------------------------
  Sum of atomic charges =     3.000000
  Sum of spin   charges =     3.000000

 -----------------------------------------------------------------
                    Cartesian Multipole Moments
 -----------------------------------------------------------------
    Charge (ESU x 10^10)
                14.4096
    Dipole Moment (Debye)
         X      -3.6293      Y      -0.5089      Z      -0.0000
       Tot       3.6648
    Quadrupole Moments (Debye-Ang)
        XX      13.8699     XY       0.6539     YY     -15.3427
        XZ      -0.0000     YZ       0.0000     ZZ     -15.3704
    Octopole Moments (Debye-Ang^2)
       XXX       3.8727    XXY      -0.2019    XYY      -3.2083
       YYY       1.3266    XXZ      -0.0000    XYZ       0.0000
       YYZ      -0.0000    XZZ      -3.1762    YZZ       0.4427
       ZZZ      -0.0000
    Hexadecapole Moments (Debye-Ang^3)
      XXXX     -99.5691   XXXY      -0.2402   XXYY     -29.9486
      XYYY      -1.1963   YYYY      -7.9377   XXXZ      -0.0000
      XXYZ       0.0000   XYYZ      -0.0000   YYYZ       0.0000
      XXZZ     -29.9646   XYZZ      -0.3993   YYZZ      -2.6240
      XZZZ      -0.0000   YZZZ       0.0000   ZZZZ      -7.8057
 -----------------------------------------------------------------
 Calculating analytic gradient of the SCF energy
 Gradient of SCF Energy
            1           2           3
    1  -0.0490116   0.0191074   0.0299042
    2  -0.0013818   0.0008693   0.0005125
    3   0.0000000  -0.0000000  -0.0000000
 Max gradient component =       4.901E-02
 RMS gradient           =       2.018E-02
 Gradient time:  CPU 6.76 s  wall 0.61 s
 Geometry Optimization Parameters
   NAtoms,    NIC,     NZ,  NCons,   NDum,   NFix, NCnnct, MaxDiis
        3       9       0       0       0       0       0       0

 Cartesian Hessian Update
 Hessian Updated using BFGS Update


** GEOMETRY OPTIMIZATION IN DELOCALIZED INTERNAL COORDINATES **
   Searching for a Minimum

   Optimization Cycle:   5

                       Coordinates (Angstroms)
     ATOM                X               Y               Z
      1  O         0.8093272702   -0.0236170914    0.0000000000
      2  O         2.0335191415    0.0090690121    0.0000000000
      3  Fe       -1.1469256333   -0.0521056755    0.0000000000
   Point Group: cs    Number of degrees of freedom:     3


   Energy is  -1411.993377076

 Hessian Updated using BFGS Update

  3 Hessian modes will be used to form the next step
  Hessian Eigenvalues:
     0.098698    0.298085    1.325260

 Minimum Search - Taking Simple RFO Step
 Searching for Lamda that Minimizes Along All modes
 Value Taken    Lamda =  -0.00761039
 Step Taken.  Stepsize is  0.254786

                             Maximum     Tolerance    Cnvgd?
         Gradient           0.034674      0.000300      NO
         Displacement       0.183574      0.001200      NO
         Energy change     -0.010145      0.000001      NO


 New Cartesian Coordinates Obtained by Inverse Iteration

  ***ERROR*** Exceeded allowed number of iterative cycles in GetCART
**WARNING** Problems with Internal Coordinates
  Switching to Cartesian Coordinates

 Translations and Rotations Projected Out of Hessian

  3 Hessian modes will be used to form the next step
  Hessian Eigenvalues:
     0.114648    0.837144    1.532906

 Minimum Search - Taking Simple RFO Step
 Searching for Lamda that Minimizes Along All modes
 Value Taken    Lamda =  -0.00842061
 Step Taken.  Stepsize is  0.217112

                             Maximum     Tolerance    Cnvgd?
         Gradient           0.049012      0.000300      NO
         Displacement       0.139937      0.001200      NO
         Energy change     -0.010145      0.000001      NO

 ----------------------------------------------------------------
             Standard Nuclear Orientation (Angstroms)
    I     Atom           X                Y                Z
 ----------------------------------------------------------------
    1      O       0.8613083421     0.0309661071     0.0000000000
    2      O       2.0555896000    -0.0236143160     0.0000000000
    3      Fe     -1.2209771636    -0.0740055459     0.0000000000
 ----------------------------------------------------------------
 Molecular Point Group                 Cs    NOp =  2
 Largest Abelian Subgroup              Cs    NOp =  2
 Nuclear Repulsion Energy =   114.7097280976 hartrees
 There are       21 alpha and       18 beta electrons
 Applying Cartesian multipole field
    Component          Value
    ---------          -----
     (2,0,0)        1.00000E-11
     (0,2,0)        2.00000E-10
     (0,0,2)       -3.00000E-10
 Nucleus-field energy     =     0.0000000029 hartrees
 Requested basis set is VDZ
 There are 19 shells and 39 basis functions
 A cutoff of  1.0D-12 yielded    178 shell pairs
 There are       786 function pairs (       876 Cartesian)
 Smallest overlap matrix eigenvalue = 1.73E-02
 Guess MOs from SCF MO coefficient file

 -----------------------------------------------------------------------
  General SCF calculation program by
  Eric Jon Sundstrom, Paul Horn, Yuezhi Mao, Dmitri Zuev, Alec White,
  David Stuck, Shaama M.S., Shane Yost, Joonho Lee, David Small,
  Daniel Levine, Susi Lehtola, Hugh Burton, Evgeny Epifanovsky
 -----------------------------------------------------------------------
 Exchange:  B88      Correlation:  LYP
 Using SG-1 standard quadrature grid
 using 12 threads for integral computing
 -------------------------------------------------------
 OpenMP Integral computing Module                
 Release: version 1.0, May 2013, Q-Chem Inc. Pittsburgh 
 -------------------------------------------------------
 -------------------------------------------------------
 OpenMP BLAS3 based DFT computing Module                
 Release: version 1.0, May 2013, Q-Chem Inc. Pittsburgh 
 -------------------------------------------------------
 A unrestricted SCF calculation will be
 performed using DIIS, GDM
 SCF converges when RMS gradient is below 1.0e-08
 ---------------------------------------
  Cycle       Energy         DIIS error
 ---------------------------------------
    1   -1411.9911354602      2.27e-03  
    2   -1411.9392360813      8.64e-03  Done DIIS. Switching to GDM
 ---------------------------------------
  Cycle       Energy        RMS Gradient
 ---------------------------------------
    1   -1411.9392360813      9.04e-01   Descent step
    2   -1411.6606152371      5.04e-01  Line search: overstep
    3   -1411.9933653021      2.20e-01   Normal BFGS step
    4   -1411.9180038120      6.18e-01  Line search: overstep
    5   -1411.9967142594      1.52e-01   Normal BFGS step
    6   -1411.9985506646      2.70e-02   Normal BFGS step
    7   -1411.9987592948      6.78e-03   Normal BFGS step
    8   -1411.9987884483      3.16e-03   Normal BFGS step
    9   -1411.9987959922      9.21e-04   Normal BFGS step
   10   -1411.9987987439      1.30e-03   Normal BFGS step
   11   -1411.9987989226      1.42e-04   Normal BFGS step
   12   -1411.9987989410      6.67e-05   Normal BFGS step
   13   -1411.9987989522      8.80e-05   Normal BFGS step
   14   -1411.9987989910      1.54e-04   Normal BFGS step
   15   -1411.9987989997      8.42e-05   Normal BFGS step
   16   -1411.9987990033      2.23e-05   Normal BFGS step
   17   -1411.9987990041      2.29e-05   Normal BFGS step
   18   -1411.9987990043      8.34e-06   Normal BFGS step
   19   -1411.9987990043      9.47e-07   Normal BFGS step
   20   -1411.9987990043      5.84e-06   Normal BFGS step
   21   -1411.9987990043      1.32e-06   Normal BFGS step
   22   -1411.9987990043      6.82e-06   Normal BFGS step
   23   -1411.9987990043      3.47e-08   Normal BFGS step
   24   -1411.9987990043      6.76e-08   Normal BFGS step
   25   -1411.9987990043      8.28e-09  Convergence criterion met
 ---------------------------------------
 SCF time:   CPU 66.57s  wall 5.00s 
<S^2> =          4.752303317
 SCF   energy in the final basis set =    -1411.9987990043
 Total energy in the final basis set =    -1411.9987990043
 
 --------------------------------------------------------------
             Orbital Energies (a.u.) and Symmetries
 --------------------------------------------------------------
 
 Alpha MOs, Unrestricted
 -- Occupied --                  
-255.82  -30.59  -26.54  -26.54  -26.53  -19.85  -19.84   -4.34
  1 A'    2 A'    3 A'    1 A"    4 A'    5 A'    6 A'    7 A'                 
 -3.159  -3.159  -3.131  -2.073  -1.551  -1.323  -1.300  -1.300
  8 A'    2 A"    9 A'   10 A'   11 A'   12 A'    3 A"   13 A'                 
 -1.238  -1.238  -1.212  -1.210  -1.209
 14 A'    4 A"   15 A'    5 A"   16 A'                                         
 -- Virtual --                   
 -1.033  -1.033  -0.892  -0.673  -0.425  -0.078  -0.077  -0.074
  6 A"   17 A'   18 A'   19 A'   20 A'   21 A'    7 A"   22 A'                 
  0.030   0.031   0.049   0.069   0.070   0.103   0.183   0.244
  8 A"   23 A'   24 A'    9 A"   25 A'   26 A'   27 A'   28 A'                 
  0.244   0.380
 10 A"   29 A'                                                                 
 
 Beta MOs, Unrestricted
 -- Occupied --                  
-255.82  -30.51  -26.49  -26.49  -26.48  -19.87  -19.84   -4.17
  1 A'    2 A'    3 A'    1 A"    4 A'    5 A'    6 A'    7 A'                 
 -2.990  -2.990  -2.980  -2.101  -1.582  -1.346  -1.340  -1.339
  8 A'    2 A"    9 A'   10 A'   11 A'   12 A'    3 A"   13 A'                 
 -1.105  -1.105
 14 A'    4 A"                                                                 
 -- Virtual --                   
 -1.077  -1.077  -1.072  -1.072  -1.050  -0.865  -0.692  -0.416
 15 A'    5 A"   16 A'    6 A"   17 A'   18 A'   19 A'   20 A'                 
 -0.084  -0.072  -0.072   0.037   0.055   0.056   0.104   0.106
 21 A'   22 A'    7 A"   23 A'    8 A"   24 A'    9 A"   25 A'                 
  0.143   0.211   0.252   0.253   0.366
 26 A'   27 A'   28 A'   10 A"   29 A'                                         
 --------------------------------------------------------------
 
          Ground-State Mulliken Net Atomic Charges

     Atom                 Charge (a.u.)    Spin (a.u.)
  --------------------------------------------------------
      1 O                     0.175217      -0.280617
      2 O                     0.724329      -0.825415
      3 Fe                    2.100454       4.106032
  --------------------------------------------------------
  Sum of atomic charges =     3.000000
  Sum of spin   charges =     3.000000

 -----------------------------------------------------------------
                    Cartesian Multipole Moments
 -----------------------------------------------------------------
    Charge (ESU x 10^10)
                14.4096
    Dipole Moment (Debye)
         X      -4.1041      Y      -0.7904      Z       0.0000
       Tot       4.1795
    Quadrupole Moments (Debye-Ang)
        XX      15.4911     XY       0.8583     YY     -15.2409
        XZ      -0.0000     YZ       0.0000     ZZ     -15.3008
    Octopole Moments (Debye-Ang^2)
       XXX       1.7905    XXY      -0.8332    XYY      -2.9587
       YYY       1.4132    XXZ      -0.0000    XYZ       0.0000
       YYZ       0.0000    XZZ      -2.8848    YZZ       0.4726
       ZZZ       0.0000
    Hexadecapole Moments (Debye-Ang^3)
      XXXX    -107.7853   XXXY      -0.7469   XXYY     -31.8835
      XYYY      -1.6631   YYYY      -7.9881   XXXZ      -0.0000
      XXYZ       0.0000   XYYZ       0.0000   YYYZ       0.0000
      XXZZ     -31.9320   XYZZ      -0.5574   YYZZ      -2.6186
      XZZZ       0.0000   YZZZ       0.0000   ZZZZ      -7.7213
 -----------------------------------------------------------------
 Calculating analytic gradient of the SCF energy
 Gradient of SCF Energy
            1           2           3
    1  -0.0095675  -0.0084550   0.0180225
    2   0.0017682  -0.0018938   0.0001255
    3  -0.0000000   0.0000000   0.0000000
 Max gradient component =       1.802E-02
 RMS gradient           =       7.413E-03
 Gradient time:  CPU 6.77 s  wall 0.62 s
 Geometry Optimization Parameters
   NAtoms,    NIC,     NZ,  NCons,   NDum,   NFix, NCnnct, MaxDiis
        3       9       0       0       0       0       0       0

 Cartesian Hessian Update
 Hessian Updated using BFGS Update


** GEOMETRY OPTIMIZATION IN CARTESIAN COORDINATES **
   Searching for a Minimum

   Optimization Cycle:   6

                       Coordinates (Angstroms)
     ATOM                X               Y               Z
      1  O         0.8613083421    0.0309661071    0.0000000000
      2  O         2.0555896000   -0.0236143160    0.0000000000
      3  Fe       -1.2209771636   -0.0740055459    0.0000000000
   Point Group: cs    Number of degrees of freedom:     3


   Energy is  -1411.998799004


 Translations and Rotations Projected Out of Hessian

  3 Hessian modes will be used to form the next step
  Hessian Eigenvalues:
     0.059915    1.026419    1.460500

 Minimum Search - Taking Simple RFO Step
 Searching for Lamda that Minimizes Along All modes
 Value Taken    Lamda =  -0.00424775
 Step Taken.  Stepsize is  0.252665

                             Maximum     Tolerance    Cnvgd?
         Gradient           0.018023      0.000300      NO
         Displacement       0.169634      0.001200      NO
         Energy change     -0.005422      0.000001      NO

 ----------------------------------------------------------------
             Standard Nuclear Orientation (Angstroms)
    I     Atom           X                Y                Z
 ----------------------------------------------------------------
    1      O       0.9037492038     0.0926072745     0.0000000000
    2      O       2.1029149629    -0.0607002805     0.0000000000
    3      Fe     -1.3107433883    -0.0985607488     0.0000000000
 ----------------------------------------------------------------
 Molecular Point Group                 Cs    NOp =  2
 Largest Abelian Subgroup              Cs    NOp =  2
 Nuclear Repulsion Energy =   109.7757923125 hartrees
 There are       21 alpha and       18 beta electrons
 Applying Cartesian multipole field
    Component          Value
    ---------          -----
     (2,0,0)        1.00000E-11
     (0,2,0)        2.00000E-10
     (0,0,2)       -3.00000E-10
 Nucleus-field energy     =     0.0000000033 hartrees
 Requested basis set is VDZ
 There are 19 shells and 39 basis functions
 A cutoff of  1.0D-12 yielded    176 shell pairs
 There are       782 function pairs (       872 Cartesian)
 Smallest overlap matrix eigenvalue = 1.84E-02
 Guess MOs from SCF MO coefficient file

 -----------------------------------------------------------------------
  General SCF calculation program by
  Eric Jon Sundstrom, Paul Horn, Yuezhi Mao, Dmitri Zuev, Alec White,
  David Stuck, Shaama M.S., Shane Yost, Joonho Lee, David Small,
  Daniel Levine, Susi Lehtola, Hugh Burton, Evgeny Epifanovsky
 -----------------------------------------------------------------------
 Exchange:  B88      Correlation:  LYP
 Using SG-1 standard quadrature grid
 using 12 threads for integral computing
 -------------------------------------------------------
 OpenMP Integral computing Module                
 Release: version 1.0, May 2013, Q-Chem Inc. Pittsburgh 
 -------------------------------------------------------
 -------------------------------------------------------
 OpenMP BLAS3 based DFT computing Module                
 Release: version 1.0, May 2013, Q-Chem Inc. Pittsburgh 
 -------------------------------------------------------
 A unrestricted SCF calculation will be
 performed using DIIS, GDM
 SCF converges when RMS gradient is below 1.0e-08
 ---------------------------------------
  Cycle       Energy         DIIS error
 ---------------------------------------
    1   -1411.9954964973      2.32e-03  
    2   -1411.7971113384      1.51e-02  
    3   -1411.8739731116      1.14e-02  
    4   -1411.9171129159      1.07e-02  
    5   -1411.8146554630      1.45e-02  
    6   -1411.7410576519      1.66e-02  
    7   -1411.7041661590      1.75e-02  
    8   -1411.8329689788      1.39e-02  
    9   -1411.8343955598      1.38e-02  
   10   -1411.8475212849      1.33e-02  
   11   -1411.9812696813      5.23e-03  Done DIIS. Switching to GDM
 ---------------------------------------
  Cycle       Energy        RMS Gradient
 ---------------------------------------
    1   -1411.9812696813      5.98e-01   Descent step
    2   -1411.5791944845      5.18e-01  Line search: overstep
    3   -1412.0008356939      2.06e-01   Normal BFGS step
    4   -1412.0036906864      8.91e-03   Normal BFGS step
    5   -1412.0030144643      4.62e-02  Line search: overstep
    6   -1412.0037172319      2.57e-03   Normal BFGS step
    7   -1412.0037294860      1.75e-03   Normal BFGS step
    8   -1412.0037348915      9.83e-04   Normal BFGS step
    9   -1412.0037395833      7.34e-04   Normal BFGS step
   10   -1412.0037427711      1.03e-03   Normal BFGS step
   11   -1412.0037483812      1.39e-03   Normal BFGS step
   12   -1412.0037568938      6.79e-03   Normal BFGS step
   13   -1412.0037688831      3.49e-03   Normal BFGS step
   14   -1412.0037851396      7.28e-03   Normal BFGS step
   15   -1412.0037900604      5.00e-03   Normal BFGS step
   16   -1412.0037953314      7.19e-04   Normal BFGS step
   17   -1412.0037956210      4.33e-04   Normal BFGS step
   18   -1412.0037956569      1.69e-04   Normal BFGS step
   19   -1412.0037956659      2.09e-05   Normal BFGS step
   20   -1412.0037956678      3.48e-05   Normal BFGS step
   21   -1412.0037956691      2.85e-05   Normal BFGS step
   22   -1412.0037956693      1.11e-05   Normal BFGS step
   23   -1412.0037956692      5.34e-06   Normal BFGS step
   24   -1412.0037956693      4.09e-06   Normal BFGS step
   25   -1412.0037956692      1.90e-05   Normal BFGS step
   26   -1412.0037956693      8.43e-07   Normal BFGS step
   27   -1412.0037956693      5.68e-07   Normal BFGS step
   28   -1412.0037956693      7.38e-09  Convergence criterion met
 ---------------------------------------
 SCF time:   CPU 96.23s  wall 8.00s 
<S^2> =          4.763857994
 SCF   energy in the final basis set =    -1412.0037956693
 Total energy in the final basis set =    -1412.0037956693
 
 --------------------------------------------------------------
             Orbital Energies (a.u.) and Symmetries
 --------------------------------------------------------------
 
 Alpha MOs, Unrestricted
 -- Occupied --                  
-255.80  -30.57  -26.53  -26.52  -26.51  -19.84  -19.82   -4.32
  1 A'    2 A'    3 A'    1 A"    4 A'    5 A'    6 A'    7 A'                 
 -3.144  -3.142  -3.117  -2.045  -1.528  -1.303  -1.277  -1.276
  8 A'    2 A"    9 A'   10 A'   11 A'   12 A'    3 A"   13 A'                 
 -1.223  -1.222  -1.203  -1.196  -1.195
 14 A'    4 A"   15 A'    5 A"   16 A'                                         
 -- Virtual --                   
 -1.022  -1.021  -0.891  -0.676  -0.421  -0.066  -0.062  -0.059
 17 A'    6 A"   18 A'   19 A'   20 A'   21 A'   22 A'    7 A"                 
  0.040   0.041   0.041   0.079   0.079   0.133   0.237   0.239
  8 A"   23 A'   24 A'   25 A'    9 A"   26 A'   27 A'   10 A"                 
  0.242   0.395
 28 A'   29 A'                                                                 
 
 Beta MOs, Unrestricted
 -- Occupied --                  
-255.80  -30.50  -26.47  -26.47  -26.46  -19.86  -19.83   -4.15
  1 A'    2 A'    3 A'    1 A"    4 A'    5 A'    6 A'    7 A'                 
 -2.976  -2.975  -2.967  -2.073  -1.562  -1.326  -1.318  -1.315
  8 A'    2 A"    9 A'   10 A'   11 A'   12 A'    3 A"   13 A'                 
 -1.088  -1.087
 14 A'    4 A"                                                                 
 -- Virtual --                   
 -1.068  -1.066  -1.060  -1.057  -1.040  -0.864  -0.696  -0.412
  5 A"   15 A'   16 A'    6 A"   17 A'   18 A'   19 A'   20 A'                 
 -0.071  -0.055  -0.053   0.037   0.069   0.069   0.113   0.115
 21 A'   22 A'    7 A"   23 A'   24 A'    8 A"    9 A"   25 A'                 
  0.148   0.242   0.247   0.280   0.382
 26 A'   27 A'   10 A"   28 A'   29 A'                                         
 --------------------------------------------------------------
 
          Ground-State Mulliken Net Atomic Charges

     Atom                 Charge (a.u.)    Spin (a.u.)
  --------------------------------------------------------
      1 O                     0.203537      -0.307594
      2 O                     0.714956      -0.785586
      3 Fe                    2.081507       4.093181
  --------------------------------------------------------
  Sum of atomic charges =     3.000000
  Sum of spin   charges =     3.000000

 -----------------------------------------------------------------
                    Cartesian Multipole Moments
 -----------------------------------------------------------------
    Charge (ESU x 10^10)
                14.4096
    Dipole Moment (Debye)
         X      -4.7082      Y      -1.0782      Z       0.0000
       Tot       4.8301
    Quadrupole Moments (Debye-Ang)
        XX      18.1794     XY       1.1325     YY     -15.1880
        XZ      -0.0000     YZ       0.0000     ZZ     -15.3156
    Octopole Moments (Debye-Ang^2)
       XXX       0.2489    XXY      -1.6447    XYY      -2.7595
       YYY       1.5328    XXZ       0.0000    XYZ       0.0000
       YYZ       0.0000    XZZ      -2.6242    YZZ       0.5134
       ZZZ       0.0000
    Hexadecapole Moments (Debye-Ang^3)
      XXXX    -112.9599   XXXY      -1.2458   XXYY     -34.6279
      XYYY      -2.2896   YYYY      -8.4303   XXXZ      -0.0000
      XXYZ       0.0000   XYYZ      -0.0000   YYYZ       0.0000
      XXZZ     -34.7551   XYZZ      -0.7912   YYZZ      -2.7003
      XZZZ      -0.0000   YZZZ      -0.0000   ZZZZ      -7.7256
 -----------------------------------------------------------------
 Calculating analytic gradient of the SCF energy
 Gradient of SCF Energy
            1           2           3
    1  -0.0383433   0.0131474   0.0251959
    2   0.0031792  -0.0057209   0.0025417
    3  -0.0000000   0.0000000   0.0000000
 Max gradient component =       3.834E-02
 RMS gradient           =       1.608E-02
 Gradient time:  CPU 6.81 s  wall 0.62 s
 Geometry Optimization Parameters
   NAtoms,    NIC,     NZ,  NCons,   NDum,   NFix, NCnnct, MaxDiis
        3       9       0       0       0       0       0       0

 Cartesian Hessian Update
 Hessian Updated using BFGS Update
**WARNING** Hereditary positive definiteness endangered


** GEOMETRY OPTIMIZATION IN CARTESIAN COORDINATES **
   Searching for a Minimum

   Optimization Cycle:   7

                       Coordinates (Angstroms)
     ATOM                X               Y               Z
      1  O         0.9037492038    0.0926072745    0.0000000000
      2  O         2.1029149629   -0.0607002805    0.0000000000
      3  Fe       -1.3107433883   -0.0985607488    0.0000000000
   Point Group: cs    Number of degrees of freedom:     3


   Energy is  -1412.003795669


 Translations and Rotations Projected Out of Hessian

  3 Hessian modes will be used to form the next step
  Hessian Eigenvalues:
    -0.150377    0.139520    1.367791
**WARNING** Hessian does not have the Desired Local Structure

 Minimum Search - Taking Simple RFO Step
 Searching for Lamda that Minimizes Along All modes
 Value Taken    Lamda =  -0.16165743
 Calculated Step too Large.  Step scaled by  0.079456
 Step Taken.  Stepsize is  0.300000

                             Maximum     Tolerance    Cnvgd?
         Gradient           0.038343      0.000300      NO
         Displacement       0.220045      0.001200      NO
         Energy change     -0.004997      0.000001      NO

 ----------------------------------------------------------------
             Standard Nuclear Orientation (Angstroms)
    I     Atom           X                Y                Z
 ----------------------------------------------------------------
    1      O       1.0201922423     0.1398245061     0.0000000000
    2      O       2.0722477498    -0.0851500322     0.0000000000
    3      Fe     -1.3965192137    -0.1213282287     0.0000000000
 ----------------------------------------------------------------
 Molecular Point Group                 Cs    NOp =  2
 Largest Abelian Subgroup              Cs    NOp =  2
 Nuclear Repulsion Energy =   108.4908305828 hartrees
 There are       21 alpha and       18 beta electrons
 Applying Cartesian multipole field
    Component          Value
    ---------          -----
     (2,0,0)        1.00000E-11
     (0,2,0)        2.00000E-10
     (0,0,2)       -3.00000E-10
 Nucleus-field energy     =     0.0000000038 hartrees
 Requested basis set is VDZ
 There are 19 shells and 39 basis functions
 A cutoff of  1.0D-12 yielded    176 shell pairs
 There are       782 function pairs (       872 Cartesian)
 Smallest overlap matrix eigenvalue = 1.04E-02
 Guess MOs from SCF MO coefficient file

 -----------------------------------------------------------------------
  General SCF calculation program by
  Eric Jon Sundstrom, Paul Horn, Yuezhi Mao, Dmitri Zuev, Alec White,
  David Stuck, Shaama M.S., Shane Yost, Joonho Lee, David Small,
  Daniel Levine, Susi Lehtola, Hugh Burton, Evgeny Epifanovsky
 -----------------------------------------------------------------------
 Exchange:  B88      Correlation:  LYP
 Using SG-1 standard quadrature grid
 using 12 threads for integral computing
 -------------------------------------------------------
 OpenMP Integral computing Module                
 Release: version 1.0, May 2013, Q-Chem Inc. Pittsburgh 
 -------------------------------------------------------
 -------------------------------------------------------
 OpenMP BLAS3 based DFT computing Module                
 Release: version 1.0, May 2013, Q-Chem Inc. Pittsburgh 
 -------------------------------------------------------
 A unrestricted SCF calculation will be
 performed using DIIS, GDM
 SCF converges when RMS gradient is below 1.0e-08
 ---------------------------------------
  Cycle       Energy         DIIS error
 ---------------------------------------
    1   -1411.9583221863      5.52e-03  
    2   -1411.9846581783      2.27e-03  Done DIIS. Switching to GDM
 ---------------------------------------
  Cycle       Energy        RMS Gradient
 ---------------------------------------
    1   -1411.9846581783      1.45e-01   Normal BFGS step
    2   -1411.7056238264      4.78e-01  Line search: overstep
    3   -1411.9866787038      8.76e-02   Normal BFGS step
    4   -1411.9658596763      2.36e-01  Line search: overstep
    5   -1411.9880055549      3.67e-02   Normal BFGS step
    6   -1411.9882811662      1.08e-02   Normal BFGS step
    7   -1411.9887351066      8.44e-03   Normal BFGS step
    8   -1411.9887920751      6.11e-03   Normal BFGS step
    9   -1411.9888837650      6.16e-03   Normal BFGS step
   10   -1411.9889111222      4.02e-03   Normal BFGS step
   11   -1411.9889146294      1.65e-03   Normal BFGS step
   12   -1411.9889154611      5.07e-04   Normal BFGS step
   13   -1411.9889160518      4.06e-04   Normal BFGS step
   14   -1411.9889163331      2.62e-04   Normal BFGS step
   15   -1411.9889163664      8.50e-05   Normal BFGS step
   16   -1411.9889163755      6.26e-05   Normal BFGS step
   17   -1411.9889163799      7.19e-05   Normal BFGS step
   18   -1411.9889163833      4.49e-05   Normal BFGS step
   19   -1411.9889163841      1.23e-05   Normal BFGS step
[...]
   26   -1409.5344908709      5.12e-01   Descent step
   27   -1409.6849758287      6.09e-01   Descent step
   28   -1409.6154529950      9.27e-01  Line search: overstep
   29   -1409.7426301225      1.06e-01   Dog-leg BFGS step
   30   -1409.7043908877      3.41e-01  Line search: overstep
   31   -1409.7497186849      7.70e-02   Dog-leg BFGS step
   32   -1409.7284959734      1.37e-01  Line search: overstep
   33   -1409.7556771902      6.09e-02   Dog-leg BFGS step
   34   -1409.7161396336      3.39e-01  Line search: overstep
   35   -1409.7591233733      7.28e-02   Normal BFGS step
   36   -1409.7568373508      1.11e-01  Line search: overstep
   37   -1409.7612338640      7.41e-02   Dog-leg BFGS step
   38   -1409.7953299124      2.17e-01   Descent step
   39   -1409.8668092921      4.00e-01   Descent step
   40   -1410.0050192654      5.79e-01   Descent step
   41   -1410.2580212300      1.27e+00   Descent step
   42   -1410.6905378293      8.00e-01   Descent step
   43   -1410.9826609874      5.51e-01   Descent step
   44   -1411.2025941868      6.52e-01   Descent step
   45   -1411.4699178839      1.30e+00   Descent step
   46   -1411.6979812121      2.54e-01   Descent step
   47   -1411.8202168078      6.39e-01   Descent step
   48   -1411.7589797834      5.02e-01  Line search: overstep
   49   -1411.8771351129      3.52e-01   Descent step
   50   -1411.9572260640      3.43e-01   Descent step
   51   -1411.9368867701      7.11e-01  Line search: overstep
   52   -1411.9925370480      2.28e-01   Dog-leg BFGS step
   53   -1411.9639215241      3.99e-01  Line search: overstep
   54   -1411.9971455882      1.51e-01   Dog-leg BFGS step
   55   -1411.9303412827      7.78e-01  Line search: overstep
   56   -1412.0088620919      7.69e-02   Dog-leg BFGS step
   57   -1411.9182915930      5.20e-01  Line search: overstep
   58   -1412.0108951685      9.62e-02   Dog-leg BFGS step
   59   -1411.9919462298      2.21e-01  Line search: overstep
   60   -1412.0153746864      7.80e-02   Dog-leg BFGS step
   61   -1411.9893190540      3.79e-01  Line search: overstep
   62   -1412.0214894328      9.01e-02   Normal BFGS step
   63   -1412.0467386762      2.50e-01   Dog-leg BFGS step
   64   -1412.1365223453      6.08e-01   Descent step
   65   -1412.2029608812      3.23e-01   Descent step
   66   -1412.0385151265      1.33e+00  Line search: overstep
   67   -1412.2335414792      8.55e-02   Dog-leg BFGS step
   68   -1412.1956977930      1.93e-01  Line search: overstep
   69   -1412.2366380182      7.96e-02   Dog-leg BFGS step
   70   -1412.1486645377      4.32e-01  Line search: overstep
   71   -1412.2400727383      7.60e-02   Dog-leg BFGS step
   72   -1412.0172696331      1.29e+00  Line search: overstep
   73   -1412.2408350891      5.79e-02   Normal BFGS step
   74   -1412.2056488145      3.22e-01  Line search: overstep
   75   -1412.2417526705      4.14e-02   Normal BFGS step
   76   -1412.2259713806      2.25e-01  Line search: overstep
   77   -1412.2424606834      3.17e-02   Normal BFGS step
   78   -1412.2427141592      3.50e-02   Normal BFGS step
   79   -1412.2431675365      8.33e-03   Normal BFGS step
   80   -1412.2432203136      2.64e-03   Normal BFGS step
   81   -1412.2432274872      8.86e-04   Normal BFGS step
   82   -1412.2432314228      7.12e-04   Normal BFGS step
   83   -1412.2432340890      5.84e-04   Normal BFGS step
   84   -1412.2432361256      5.03e-04   Normal BFGS step
   85   -1412.2432381555      4.95e-04   Normal BFGS step
   86   -1412.2432400408      4.61e-04   Normal BFGS step
   87   -1412.2432414486      4.66e-04   Normal BFGS step
   88   -1412.2432426905      4.68e-04   Normal BFGS step
   89   -1412.2432440816      4.68e-04   Normal BFGS step
   90   -1412.2432467799      6.86e-04   Normal BFGS step
   91   -1412.2432518905      9.71e-04   Normal BFGS step
   92   -1412.2432595503      2.18e-03   Normal BFGS step
   93   -1412.2432672582      2.77e-03   Normal BFGS step
   94   -1412.2432605363      7.39e-03  Line search: overstep
   95   -1412.2432734561      3.60e-03   Normal BFGS step
   96   -1412.2432856069      1.50e-03   Normal BFGS step
   97   -1412.2432916706      7.64e-03   Normal BFGS step
   98   -1412.2433040611      1.45e-03   Normal BFGS step
   99   -1412.2433124183      6.40e-04   Normal BFGS step
  100   -1412.2433172143      5.01e-03   Normal BFGS step
  101   -1412.2433202623      1.22e-03   Normal BFGS step
  102   -1412.2433236250      4.95e-04   Normal BFGS step
  103   -1412.2433266132      1.93e-03   Normal BFGS step
  104   -1412.2433280970      4.80e-04   Normal BFGS step
  105   -1412.2433286962      6.58e-04   Normal BFGS step
  106   -1412.2433289490      3.67e-04   Normal BFGS step
  107   -1412.2433292146      3.83e-04   Normal BFGS step
  108   -1412.2433302099      3.05e-04   Normal BFGS step
  109   -1412.2433308432      6.86e-04   Normal BFGS step
  110   -1412.2433315599      7.00e-04   Normal BFGS step
  111   -1412.2433321990      1.06e-03   Normal BFGS step
  112   -1412.2433331519      7.75e-04   Normal BFGS step
  113   -1412.2433341938      1.36e-03   Normal BFGS step
  114   -1412.2433346677      2.13e-03   Normal BFGS step
  115   -1412.2433371615      1.02e-03   Normal BFGS step
  116   -1412.2433387663      2.79e-03   Normal BFGS step
  117   -1412.2433411288      1.09e-03   Normal BFGS step
  118   -1412.2433432830      5.91e-04   Normal BFGS step
  119   -1412.2433446296      2.45e-03   Normal BFGS step
  120   -1412.2433455663      6.88e-04   Normal BFGS step
  121   -1412.2433464850      5.95e-04   Normal BFGS step
  122   -1412.2433473014      1.45e-03   Normal BFGS step
  123   -1412.2433478621      6.20e-04   Normal BFGS step
  124   -1412.2433486410      1.10e-03   Normal BFGS step
  125   -1412.2433494351      2.73e-04   Normal BFGS step
  126   -1412.2433500995      1.40e-03   Normal BFGS step
  127   -1412.2433512557      6.07e-04   Normal BFGS step
  128   -1412.2433507755      4.91e-03  Line search: overstep
  129   -1412.2433522899      1.07e-03   Normal BFGS step
  130   -1412.2433527140      4.81e-03   Normal BFGS step
  131   -1412.2433548519      1.66e-03   Normal BFGS step
  132   -1412.2433568781      4.92e-04   Normal BFGS step
  133   -1412.2433583104      2.55e-03   Normal BFGS step
  134   -1412.2433596741      2.78e-03   Normal BFGS step
  135   -1412.2433563909      4.60e-03  Line search: overstep
  136   -1412.2433611645      5.33e-04   Normal BFGS step
  137   -1412.2433628019      9.76e-04   Normal BFGS step
  138   -1412.2433642529      1.27e-03   Normal BFGS step
  139   -1412.2433655540      1.47e-03   Normal BFGS step
  140   -1412.2433666488      4.30e-04   Normal BFGS step
  141   -1412.2433671836      1.97e-04   Normal BFGS step
  142   -1412.2433672950      1.01e-04   Normal BFGS step
  143   -1412.2433673215      6.82e-05   Normal BFGS step
  144   -1412.2433673437      7.07e-05   Normal BFGS step
  145   -1412.2433673835      1.14e-04   Normal BFGS step
  146   -1412.2433674772      1.71e-04   Normal BFGS step
  147   -1412.2433676948      2.97e-04   Normal BFGS step
  148   -1412.2433681024      4.77e-04   Normal BFGS step
  149   -1412.2433686597      8.24e-04   Normal BFGS step
  150   -1412.2433696969      2.89e-04   Normal BFGS step
  151   -1412.2433700079      1.28e-03   Normal BFGS step
  152   -1412.2433700129      7.58e-04   Normal BFGS step
  153   -1412.2433704654      3.55e-04   Normal BFGS step
  154   -1412.2433705091      1.04e-03   Normal BFGS step
  155   -1412.2433707732      9.22e-04   Normal BFGS step
  156   -1412.2433710054      3.30e-04   Normal BFGS step
  157   -1412.2433711930      5.58e-04   Normal BFGS step
  158   -1412.2433714314      5.51e-04   Normal BFGS step
  159   -1412.2433715626      2.14e-04   Normal BFGS step
  160   -1412.2433715329      1.12e-03  Line search: overstep
  161   -1412.2433716083      5.02e-04   Normal BFGS step
  162   -1412.2433716710      5.35e-05   Normal BFGS step
  163   -1412.2433716994      2.24e-04   Normal BFGS step
  164   -1412.2433717424      2.42e-04   Normal BFGS step
  165   -1412.2433717804      1.53e-04   Normal BFGS step
  166   -1412.2433718068      2.78e-04   Normal BFGS step
  167   -1412.2433718249      2.10e-04   Normal BFGS step
  168   -1412.2433718403      7.45e-04   Normal BFGS step
  169   -1412.2433718884      6.88e-05   Normal BFGS step
  170   -1412.2433719488      1.41e-04  Line search: understep
  171   -1412.2433601295      1.06e-02  Line search: overstep
  172   -1412.2433719961      4.72e-04   Normal BFGS step
  173   -1412.2433215176      2.11e-02  Line search: overstep
  174   -1412.2433720216      1.10e-03   Normal BFGS step
  175   -1412.2433721149      8.53e-04   Normal BFGS step
  176   -1412.2433724745      1.14e-03   Normal BFGS step
  177   -1412.2433729269      8.70e-04   Normal BFGS step
  178   -1412.2433733862      1.62e-03   Normal BFGS step
  179   -1412.2433735058      9.05e-04   Normal BFGS step
  180   -1412.2433750741      1.73e-03   Normal BFGS step
  181   -1412.2433646178      3.75e-03  Line search: overstep
  182   -1412.2433747479      8.96e-04  Line search: overstep
  183   -1412.2433754091      4.31e-04   Normal BFGS step
  184   -1412.2433762424      1.50e-03   Normal BFGS step
  185   -1412.2433778512      1.74e-03   Normal BFGS step
  186   -1412.2433789293      3.70e-04   Normal BFGS step
  187   -1412.2433781484      4.26e-03  Line search: overstep
  188   -1412.2433794443      1.20e-03   Normal BFGS step
  189   -1412.2433800455      9.27e-04   Normal BFGS step
  190   -1412.2433807666      6.60e-04   Normal BFGS step
  191   -1412.2433813799      2.71e-04   Normal BFGS step
  192   -1412.2433816325      9.69e-04   Normal BFGS step
  193   -1412.2433817025      7.37e-04   Normal BFGS step
  194   -1412.2433819054      1.35e-04   Normal BFGS step
  195   -1412.2433819658      3.14e-04   Normal BFGS step
  196   -1412.2433820791      4.14e-04   Normal BFGS step
  197   -1412.2433821533      3.49e-04   Normal BFGS step
  198   -1412.2433821917      2.14e-04   Normal BFGS step
  199   -1412.2433822192      1.09e-04   Normal BFGS step
  200   -1412.2433822415      3.64e-05   Normal BFGS step
  201   -1412.2433822522      2.33e-05   Normal BFGS step
  202   -1412.2433822566      2.01e-05   Normal BFGS step
  203   -1412.2433822578      6.21e-05   Normal BFGS step
  204   -1412.2433822589      8.26e-05   Normal BFGS step
  205   -1412.2433822619      9.25e-06   Normal BFGS step
  206   -1412.2433822627      2.08e-05   Normal BFGS step
  207   -1412.2433822630      5.71e-06   Normal BFGS step
  208   -1412.2433822631      5.83e-06   Normal BFGS step
  209   -1412.2433822631      3.19e-06   Normal BFGS step
  210   -1412.2433822631      2.27e-06   Normal BFGS step
  211   -1412.2433822631      1.22e-06   Normal BFGS step
  212   -1412.2433822631      1.06e-06   Normal BFGS step
  213   -1412.2433822631      1.09e-06   Normal BFGS step
  214   -1412.2433822631      1.79e-06   Normal BFGS step
  215   -1412.2433822632      3.11e-06   Normal BFGS step
  216   -1412.2433822632      3.56e-06   Normal BFGS step
  217   -1412.2433822633      3.50e-06   Normal BFGS step
  218   -1412.2433822634      3.28e-06   Normal BFGS step
  219   -1412.2433822634      2.02e-06   Normal BFGS step
  220   -1412.2433822634      7.83e-07   Normal BFGS step
  221   -1412.2433822634      4.59e-07   Normal BFGS step
  222   -1412.2433822634      9.22e-07   Normal BFGS step
  223   -1412.2433822634      2.55e-07   Normal BFGS step
  224   -1412.2433822634      1.09e-07   Normal BFGS step
  225   -1412.2433822634      3.04e-07   Normal BFGS step
  226   -1412.2433822634      4.72e-08   Normal BFGS step
  227   -1412.2433822634      3.17e-08   Normal BFGS step
  228   -1412.2433822634      4.83e-08   Normal BFGS step
  /scratch/qcdevops/jenkins/workspace/build_qchem_linux_distrib/tags/qc511/qchem/libgscf/libgscf/opt/gdm.C::WARNING energy changes are now smaller than effective accuracy.
  /scratch/qcdevops/jenkins/workspace/build_qchem_linux_distrib/tags/qc511/qchem/libgscf/libgscf/opt/gdm.C::        calculation will continue, but THRESH should be increased
  /scratch/qcdevops/jenkins/workspace/build_qchem_linux_distrib/tags/qc511/qchem/libgscf/libgscf/opt/gdm.C::        or SCF_CONVERGENCE decreased. 
  /scratch/qcdevops/jenkins/workspace/build_qchem_linux_distrib/tags/qc511/qchem/libgscf/libgscf/opt/gdm.C::        effective_thresh = 4.56e-09
  229   -1412.2433822634      1.69e-08   Normal BFGS step
  /scratch/qcdevops/jenkins/workspace/build_qchem_linux_distrib/tags/qc511/qchem/libgscf/libgscf/opt/gdm.C::WARNING energy changes are now smaller than effective accuracy.
  /scratch/qcdevops/jenkins/workspace/build_qchem_linux_distrib/tags/qc511/qchem/libgscf/libgscf/opt/gdm.C::        calculation will continue, but THRESH should be increased
  /scratch/qcdevops/jenkins/workspace/build_qchem_linux_distrib/tags/qc511/qchem/libgscf/libgscf/opt/gdm.C::        or SCF_CONVERGENCE decreased. 
  /scratch/qcdevops/jenkins/workspace/build_qchem_linux_distrib/tags/qc511/qchem/libgscf/libgscf/opt/gdm.C::        effective_thresh = 4.56e-09
  230   -1412.2433822634      8.03e-09  Convergence criterion met
 ---------------------------------------
 SCF time:   CPU 480.23s  wall 40.00s 
<S^2> =          4.752401265
 SCF   energy in the final basis set =    -1412.2433822634
 Total energy in the final basis set =    -1412.2433822634
 
 --------------------------------------------------------------
             Orbital Energies (a.u.) and Symmetries
 --------------------------------------------------------------
 
 Alpha MOs, Unrestricted
 -- Occupied --                  
-255.53  -30.30  -26.27  -26.24  -26.24  -19.62  -19.62   -4.07
  1 A'    2 A'    1 A"    3 A'    4 A'    5 A'    6 A'    7 A'                 
 -2.926  -2.866  -2.865  -1.863  -1.281  -1.093  -1.064  -1.054
  2 A"    8 A'    9 A'   10 A'   11 A'    3 A"   12 A'   13 A'                 
 -0.991  -0.988  -0.987  -0.962  -0.926
 14 A'    4 A"    5 A"   15 A'   16 A'                                         
 -- Virtual --                   
 -0.829  -0.787  -0.739  -0.434  -0.295   0.158   0.217   0.229
  6 A"   17 A'   18 A'   19 A'   20 A'   21 A'    7 A"   22 A'                 
  0.231   0.231   0.242   0.243   0.260   0.271   0.364   0.368
  8 A"    9 A"   23 A'   24 A'   25 A'   26 A'   27 A'   10 A"                 
  0.390   0.604
 28 A'   29 A'                                                                 
 
 Beta MOs, Unrestricted
 -- Occupied --                  
-255.53  -30.24  -26.22  -26.20  -26.20  -19.63  -19.63   -3.91
  1 A'    2 A'    1 A"    3 A'    4 A'    5 A'    6 A'    7 A'                 
 -2.752  -2.726  -2.726  -1.885  -1.312  -1.110  -1.106  -1.080
  2 A"    8 A'    9 A'   10 A'   11 A'   12 A'    3 A"   13 A'                 
 -0.854  -0.854
 14 A'   15 A'                                                                 
 -- Virtual --                   
 -0.852  -0.845  -0.837  -0.836  -0.801  -0.709  -0.453  -0.288
 16 A'    4 A"    5 A"    6 A"   17 A'   18 A'   19 A'   20 A'                 
  0.145   0.209   0.211   0.261   0.291   0.294   0.306   0.307
 21 A'   22 A'    7 A"   23 A'   24 A'   25 A'    8 A"    9 A"                 
  0.328   0.356   0.360   0.361   0.591
 26 A'   27 A'   28 A'   10 A"   29 A'                                         
 --------------------------------------------------------------
 
          Ground-State Mulliken Net Atomic Charges

     Atom                 Charge (a.u.)    Spin (a.u.)
  --------------------------------------------------------
      1 O                     0.502415      -0.501193
      2 O                     0.497585      -0.498807
      3 Fe                    2.000000       4.000000
  --------------------------------------------------------
  Sum of atomic charges =     3.000000
  Sum of spin   charges =     3.000000

 -----------------------------------------------------------------
                    Cartesian Multipole Moments
 -----------------------------------------------------------------
    Charge (ESU x 10^10)
                14.4096
    Dipole Moment (Debye)
         X     -43.5903      Y      -6.4185      Z       0.0000
       Tot      44.0603
    Quadrupole Moments (Debye-Ang)
        XX     488.6936     XY      63.5197     YY      -6.3049
        XZ      -0.0000     YZ       0.0000     ZZ     -15.2927
    Octopole Moments (Debye-Ang^2)
       XXX   -2403.3561    XXY    -329.6849    XYY     -28.1285
       YYY       3.7738    XXZ      -0.0000    XYZ      -0.0000
       YYZ      -0.0000    XZZ      19.1425    YZZ       3.6256
       ZZZ       0.0000
    Hexadecapole Moments (Debye-Ang^3)
      XXXX   17144.2918   XXXY    2404.0074   XXYY    -116.0529
      XYYY    -116.1038   YYYY     -58.2127   XXXZ      -0.0000
      XXYZ       0.0000   XYYZ       0.0000   YYYZ       0.0000
      XXZZ    -470.3851   XYZZ     -57.0434   YYZZ     -12.2459
      XZZZ      -0.0000   YZZZ       0.0000   ZZZZ      -7.8134
 -----------------------------------------------------------------
 Calculating analytic gradient of the SCF energy
 Gradient of SCF Energy
            1           2           3
    1  -0.0021746  -0.0025245   0.0046991
    2   0.0017473  -0.0022994   0.0005521
    3   0.0000000  -0.0000000   0.0000000
 Max gradient component =       4.699E-03
 RMS gradient           =       2.156E-03
 Gradient time:  CPU 5.93 s  wall 0.54 s
 Geometry Optimization Parameters
   NAtoms,    NIC,     NZ,  NCons,   NDum,   NFix, NCnnct, MaxDiis
        3       9       0       0       0       0       0       0

 Cartesian Hessian Update
 Hessian Updated using BFGS Update


** GEOMETRY OPTIMIZATION IN CARTESIAN COORDINATES **
   Searching for a Minimum

   Optimization Cycle:  50

                       Coordinates (Angstroms)
     ATOM                X               Y               Z
      1  O         4.1783577165    0.9965251544    0.0000000000
      2  O         4.1365907751   -0.1924005654    0.0000000000
      3  Fe       -6.6190277131   -0.8707783437    0.0000000000
   Point Group: cs    Number of degrees of freedom:     3


   Energy is  -1412.243382263


 Translations and Rotations Projected Out of Hessian

  3 Hessian modes will be used to form the next step
  Hessian Eigenvalues:
     0.000729    0.911451    4.104812

 Minimum Search - Taking Simple RFO Step
 Searching for Lamda that Minimizes Along All modes
 Value Taken    Lamda =  -0.00539101
 Calculated Step too Large.  Step scaled by  0.319941
 Step Taken.  Stepsize is  0.300000

                             Maximum     Tolerance    Cnvgd?
         Gradient           0.004699      0.000300      NO
         Displacement       0.241234      0.001200      NO
         Energy change     -0.001789      0.000001      NO

 ----------------------------------------------------------------
             Standard Nuclear Orientation (Angstroms)
    I     Atom           X                Y                Z
 ----------------------------------------------------------------
    1      O       4.2553547613     1.0038823769     0.0000000000
    2      O       4.1872494880    -0.1832236102     0.0000000000
    3      Fe     -6.7466834708    -0.8873125214     0.0000000000
 ----------------------------------------------------------------
 Molecular Point Group                 Cs    NOp =  2
 Largest Abelian Subgroup              Cs    NOp =  2
 Nuclear Repulsion Energy =    48.3882103762 hartrees
 There are       21 alpha and       18 beta electrons

                       Distance Matrix (Angstroms)
             O (  1)   O (  2)
   O (  2)  1.189058
   Fe(  3) 11.163398 10.956579
 


 *******************************************
 **  MAXIMUM OPTIMIZATION CYCLES REACHED  **
 *******************************************

 Q-Chem fatal error occurred in module 0, line  456:

 Maximum optimization cycles reached

