
Running Job 1 of 1 FeHis4_opt_sto3g.in
qchem FeHis4_opt_sto3g.in_9770.0 /scr/c295_lal/137005/qchem9770/ 1
/usr/software/qchem_511/exe/qcprog.exe_s FeHis4_opt_sto3g.in_9770.0 /scr/c295_lal/137005/qchem9770/
Check license passed

                  Welcome to Q-Chem
     A Quantum Leap Into The Future Of Chemistry


 Q-Chem 5.1, Q-Chem, Inc., Pleasanton, CA (2018)

 Yihan Shao,  Zhengting Gan,  E. Epifanovsky,  A. T. B. Gilbert,  M. Wormit,  
 J. Kussmann,  A. W. Lange,  A. Behn,  Jia Deng,  Xintian Feng,  D. Ghosh,  
 M. Goldey,  P. R. Horn,  L. D. Jacobson,  I. Kaliman,  T. Kus,  A. Landau,  
 Jie Liu,  E. I. Proynov,  R. M. Richard,  R. P. Steele,  E. J. Sundstrom,  
 H. L. Woodcock III,  P. M. Zimmerman,  D. Zuev,  B. Albrecht,  E. Alguire,  
 S. A. Baeppler,  D. Barton,  Z. Benda,  Y. A. Bernard,  E. J. Berquist,  
 K. B. Bravaya,  H. Burton,  D. Casanova,  Chun-Min Chang,  Yunqing Chen,  
 A. Chien,  K. D. Closser,  M. P. Coons,  S. Coriani,  S. Dasgupta,  
 A. L. Dempwolff,  M. Diedenhofen,  Hainam Do,  R. G. Edgar,  Po-Tung Fang,  
 S. Faraji,  S. Fatehi,  Qingguo Feng,  K. D. Fenk,  J. Fosso-Tande,  
 Qinghui Ge,  A. Ghysels,  G. Gidofalvi,  J. Gomes,  J. Gonthier,  A. Gunina,  
 D. Hait,  M. W. D. Hanson-Heine,  P. H. P. Harbach,  A. W. Hauser,  
 J. E. Herr,  E. G. Hohenstein,  Z. C. Holden,  Kerwin Hui,  B. C. Huynh,  
 T.-C. Jagau,  Hyunjun Ji,  B. Kaduk,  K. Khistyaev,  Jaehoon Kim,  
 P. Klunzinger,  K. Koh,  D. Kosenkov,  L. Koulias,  T. Kowalczyk,  
 C. M. Krauter,  A. Kunitsa,  Ka Un Lao,  A. Laurent,  K. V. Lawler,  
 Joonho Lee,  D. Lefrancois,  S. Lehtola,  D. S. Levine,  Yi-Pei Li,  
 You-Sheng Lin,  Fenglai Liu,  E. Livshits,  A. Luenser,  P. Manohar,  
 E. Mansoor,  S. F. Manzer,  Shan-Ping Mao,  Yuezhi Mao,  N. Mardirossian,  
 A. V. Marenich,  T. Markovich,  L. A. Martinez-Martinez,  S. A. Maurer,  
 N. J. Mayhall,  S. C. McKenzie,  J.-M. Mewes,  A. F. Morrison,  
 J. W. Mullinax,  K. Nanda,  T. S. Nguyen-Beck,  R. Olivares-Amaya,  
 J. A. Parkhill,  T. M. Perrine,  F. Plasser,  P. Pokhilko,  S. Prager,  
 A. Prociuk,  E. Ramos,  D. R. Rehn,  F. Rob,  M. Schneider,  N. Sergueev,  
 S. M. Sharada,  S. Sharma,  D. W. Small,  T. Stauch,  T. Stein,  
 Yu-Chuan Su,  A. J. W. Thom,  A. Tkatchenko,  T. Tsuchimochi,  N. M. Tubman,  
 L. Vogt,  M. L. Vidal,  O. Vydrov,  M. A. Watson,  J. Wenzel,  
 M. de Wergifosse,  T. A. Wesolowski,  A. White,  J. Witte,  A. Yamada,  
 Jun Yang,  K. Yao,  S. Yeganeh,  S. R. Yost,  Zhi-Qiang You,  A. Zech,  
 Igor Ying Zhang,  Xing Zhang,  Yan Zhao,  Ying Zhu,  B. R. Brooks,  
 G. K. L. Chan,  C. J. Cramer,  M. S. Gordon,  W. J. Hehre,  A. Klamt,  
 M. W. Schmidt,  C. D. Sherrill,  D. G. Truhlar,  A. Aspuru-Guzik,  R. Baer,  
 A. T. Bell,  N. A. Besley,  Jeng-Da Chai,  A. E. DePrince, III,  
 R. A. DiStasio Jr.,  A. Dreuw,  B. D. Dunietz,  T. R. Furlani,  
 Chao-Ping Hsu,  Yousung Jung,  Jing Kong,  D. S. Lambrecht,  WanZhen Liang,  
 C. Ochsenfeld,  V. A. Rassolov,  L. V. Slipchenko,  J. E. Subotnik,  
 T. Van Voorhis,  J. M. Herbert,  A. I. Krylov,  P. M. W. Gill,  M. Head-Gordon

 Contributors to earlier versions of Q-Chem not listed above: 
 R. D. Adamson,  B. Austin,  J. Baker,  G. J. O. Beran,  K. Brandhorst,  
 S. T. Brown,  E. F. C. Byrd,  A. K. Chakraborty,  C.-L. Cheng,  
 Siu Hung Chien,  D. M. Chipman,  D. L. Crittenden,  H. Dachsel,  
 R. J. Doerksen,  A. D. Dutoi,  L. Fusti-Molnar,  W. A. Goddard III,  
 A. Golubeva-Zadorozhnaya,  S. R. Gwaltney,  G. Hawkins,  A. Heyden,  
 S. Hirata,  G. Kedziora,  F. J. Keil,  C. Kelley,  Jihan Kim,  R. A. King,  
 R. Z. Khaliullin,  P. P. Korambath,  W. Kurlancheek,  A. M. Lee,  M. S. Lee,  
 S. V. Levchenko,  Ching Yeh Lin,  D. Liotard,  R. C. Lochan,  I. Lotan,  
 P. E. Maslen,  N. Nair,  D. P. O'Neill,  D. Neuhauser,  E. Neuscamman,  
 C. M. Oana,  R. Olson,  B. Peters,  R. Peverati,  P. A. Pieniazek,  
 Y. M. Rhee,  J. Ritchie,  M. A. Rohrdanz,  E. Rosta,  N. J. Russ,  
 H. F. Schaefer III,  N. E. Schultz,  N. Shenvi,  A. C. Simmonett,  A. Sodt,  
 D. Stuck,  K. S. Thanthiriwatte,  V. Vanovschi,  Tao Wang,  A. Warshel,  
 C. F. Williams,  Q. Wu,  X. Xu,  W. Zhang

 Please cite Q-Chem as follows:
 Y. Shao et al., Mol. Phys. 113, 184-215 (2015)
 DOI: 10.1080/00268976.2014.952696

 Q-Chem 5.1.1 for Intel X86 EM64T Linux

 Parts of Q-Chem use Armadillo 8.300.2 (Tropical Shenanigans).
 http://arma.sourceforge.net/

 Q-Chem begins on Tue Oct 30 19:56:06 2018  

Host: cub-0-19.local
0

     Scratch files written to /scr/c295_lal/137005/qchem9770//
 Aug318 |scratch|qcdevops|jenkins|workspace|build_RNUM -1
Processing $rem in /usr/software/qchem_511/config/preferences.
 MEM_TOTAL  2000 
Input Ideriv = 2
Curr. Ideriv = -1
Max.  Ideriv = 2

Checking the input file for inconsistencies... 	...done.

--------------------------------------------------------------
User input:
--------------------------------------------------------------
$molecule
3 4
Fe        -2.02188        8.67392        5.29699
N         -1.00586       12.49034        5.96233
C         -1.09101       11.63863        4.92061
N         -2.35758       11.47719        4.49788
C         -3.10966       12.25082        5.29529
C         -2.27597       12.87503        6.19604
H         -4.18471       12.35236        5.22619
H         -2.57367       13.56458        6.97439
H         -0.23802       11.14270        4.47677
H         -2.68725       10.87430        3.71210
H         -6.69688       10.49875        5.73540
C         -6.21811        9.67053        6.24071
H         -4.43511        9.41418        5.08715
N         -5.04434        9.12737        5.88410
C         -6.68608        8.99216        7.34379
C         -4.81620        8.13753        6.76571
H         -7.60843        9.18779        7.87375
N         -5.80521        8.02765        7.67553
H         -3.94067        7.50246        6.74844
H         -4.45295       11.84757        8.00825
C         -4.17766       11.10860        8.74811
H         -2.26722       10.44998        8.04178
N         -3.03943       10.39795        8.74217
C         -4.91561       10.72725        9.84571
C         -3.10019        9.60335        9.82570
H         -5.88483       11.11237       10.13223
N         -4.23936        9.78030       10.52481
H         -2.32626        8.90233       10.10609
H         -1.36181        7.50756        7.52958
C         -0.43836        7.89911        7.93473
H          0.17865        9.26687        6.40863
N          0.34070        8.81100        7.33317
C          0.14393        7.56460        9.13674
C          1.37475        9.01644        8.16827
H         -0.23785        6.85601        9.85936
N          1.28451        8.26668        9.28535
H          2.18615        9.70351        7.96782

$end

$rem
BASIS = STO-3G
METHOD  = BLYP
JOBTYPE = OPT
MAX_SCF_CYCLES = 100000
$end
--------------------------------------------------------------
 ----------------------------------------------------------------
             Standard Nuclear Orientation (Angstroms)
    I     Atom           X                Y                Z
 ----------------------------------------------------------------
    1      Fe     -0.7006322446    -1.1634826247    -1.7367805958
    2      N      -1.2285858140    -2.5064131631     1.9992384312
    3      C      -1.2244508796    -2.9988275914     0.7441081837
    4      N       0.0221950177    -3.1767360288     0.2716828604
    5      C       0.8448148131    -2.7850237833     1.2564917760
    6      C       0.0733672440    -2.3734288740     2.3202050744
    7      H       1.9254930733    -2.7977837283     1.2036773278
    8      H       0.4352878522    -1.9986750158     3.2681007618
    9      H      -2.1213205503    -3.2243957620     0.1826135313
   10      H       0.2935294347    -3.5433906851    -0.6672265424
   11      H       4.1575819238    -1.2384028167    -0.4063765535
   12      C       3.5598355962    -0.4426757092    -0.8306700554
   13      H       1.7938146865    -1.4858799274    -1.4376297754
   14      N       2.3363080533    -0.5981815728    -1.3586168034
   15      C       3.9020480060     0.8875096091    -0.9279580285
   16      C       1.9545912844     0.6259556360    -1.7646311870
   17      H       4.8258409384     1.3386307462    -0.5918708987
   18      N       2.8931940921     1.5612056120    -1.5149932921
   19      H       1.0044852797     0.8374011139    -2.2365997543
   20      H       2.0424080614    -0.1037649952     2.0954269770
   21      C       1.6509764850     0.8720005159     1.8426087561
   22      H      -0.3072361208     0.4007868073     1.1174712532
   23      N       0.4303264142     1.1060931297     1.3368021806
   24      C       2.2997108352     2.0789684675     1.9733600160
   25      C       0.3543972015     2.4385546898     1.1697718119
   26      H       3.3019709066     2.2308773840     2.3504501426
   27      N       1.4855698121     3.0656652144     1.5505017666
   28      H      -0.5125177911     2.9505037537     0.7755868441
   29      H      -1.5737242127     1.2855832919    -1.5941877701
   30      C      -2.4497513055     1.3683947065    -0.9649528141
   31      H      -2.8369577697    -0.6752838372    -0.4610687680
   32      N      -3.0846810908     0.3358416650    -0.3895827823
   33      C      -3.1063348925     2.5257259476    -0.6110191821
   34      C      -4.1074487223     0.8732817748     0.2988658405
   35      H      -2.8421417159     3.5307142191    -0.9114121922
   36      N      -4.1493044125     2.2161289703     0.1841463898
   37      H      -4.8157641357     0.2957885722     0.8780085029
 ----------------------------------------------------------------
 Molecular Point Group                 C1    NOp =  1
 Largest Abelian Subgroup              C1    NOp =  1
 Nuclear Repulsion Energy =  1965.3852974557 hartrees
 There are       85 alpha and       82 beta electrons
 Requested basis set is STO-3G
 There are 61 shells and 134 basis functions

 Total QAlloc Memory Limit   2000 MB
 Mega-Array Size       188 MB
 MEM_STATIC part       192 MB
 A cutoff of  1.0D-11 yielded   1387 shell pairs
 There are      7707 function pairs (      7828 Cartesian)
 
 -------------------------------------------------------
 OpenMP Integral Computing Module                       
 Release: version 1.0, May 2013, Q-Chem Inc. Pittsburgh 
 -------------------------------------------------------
 Integral Job Info:
 Integral job number is                      11
 Integral operator is                         1
 short-range coefficients                     0
 long-range coefficients              100000000
 Omega coefficients                           0
 if combine SR and LR in K                    0
 Integral screening is                        0
 Integral computing path is                   2
 max size of driver memory is            800000
 size of driver memory is                593474
 size of scratch memory is             10861360
 max col of scratch BK array               1296
 max len of scratch array in speh3          155
 max len of scratch index in speh4           18
 max int batch size is                      520
 min int batch size is                       52
 fixed nKL is                                52
 max L of basis functions is                  2
 order of int derivative is                   0
 number of shells is                         61
 number of basis is                         135
 number of cartesian basis is               135
 number of contracted shell pairs          1387
 number of primitive shell pairs           7068
 maxK2 (contraction) of shell pair            9
 max number of K2 of shell pair               1
 max number of CS2 of shell pair            199
 max number of PS2 of shell pair            828
 mem total for path MDJ                  544862
 -------------------------------------------------------
 Smallest overlap matrix eigenvalue = 1.85E-01

 Scale SEOQF with 1.000000e-01/1.000000e-01/1.000000e-01

 Standard Electronic Orientation quadrupole field applied
 Nucleus-field energy     =     0.0000000391 hartrees
 Guess from superposition of atomic densities
 Warning:  Energy on first SCF cycle will be non-variational
 SAD guess density has 170.000000 electrons

 -----------------------------------------------------------------------
  General SCF calculation program by
  Eric Jon Sundstrom, Paul Horn, Yuezhi Mao, Dmitri Zuev, Alec White,
  David Stuck, Shaama M.S., Shane Yost, Joonho Lee, David Small,
  Daniel Levine, Susi Lehtola, Hugh Burton, Evgeny Epifanovsky
 -----------------------------------------------------------------------
 Exchange:  B88      Correlation:  LYP
 Using SG-1 standard quadrature grid
 using 8 threads for integral computing
 -------------------------------------------------------
 OpenMP Integral computing Module                
 Release: version 1.0, May 2013, Q-Chem Inc. Pittsburgh 
 -------------------------------------------------------
 -------------------------------------------------------
 OpenMP BLAS3 based DFT computing Module                
 Release: version 1.0, May 2013, Q-Chem Inc. Pittsburgh 
 -------------------------------------------------------
 A unrestricted SCF calculation will be
 performed using DIIS
 SCF converges when DIIS error is below 1.0e-08
 ---------------------------------------
  Cycle       Energy         DIIS error
 ---------------------------------------
    1   -2143.6530639645      4.87e-02  
    2   -2140.9889525463      6.16e-03  
    3   -2119.3224372807      2.79e-02  
    4   -2124.9094154870      1.65e-02  
    5   -2140.1491311692      8.11e-03  
    6   -2134.9319690724      1.52e-02  
    7   -2140.9464425218      5.55e-03  
    8   -2140.0222350149      7.84e-03  
    9   -2141.2701902645      3.40e-03  
   10   -2141.4451530895      3.63e-03  
   11   -2141.1312189540      5.01e-03  
   12   -2141.4983765979      2.97e-03  
   13   -2141.5623174235      2.84e-03  
   14   -2141.4911157654      2.60e-03  
   15   -2141.5745090530      2.34e-03  
   16   -2141.4554206305      3.20e-03  
   17   -2141.4637917260      2.87e-03  
   18   -2141.5212033579      2.77e-03  
   19   -2141.4853213531      3.00e-03  
   20   -2141.5524643811      2.24e-03  
   21   -2141.6160585116      2.47e-03  
   22   -2141.3190239910      3.08e-03  
   23   -2141.3807830004      3.08e-03  
   24   -2141.4066683912      3.03e-03  
   25   -2141.3301375041      3.10e-03  
   26   -2141.3225381886      3.09e-03  
   27   -2141.3466564275      3.10e-03  
   28   -2141.5017692773      2.91e-03  
   29   -2141.5447041137      2.47e-03  
   30   -2141.5055777895      2.53e-03  
   31   -2141.5697092174      2.58e-03  
   32   -2141.6412401769      1.81e-03  
   33   -2141.5665953308      2.42e-03  
   34   -2141.6380573891      1.80e-03  
   35   -2141.5838686855      2.39e-03  
   36   -2141.5083983918      2.42e-03  
   37   -2141.4321562054      2.88e-03  
   38   -2141.4567274675      2.84e-03  
   39   -2141.4699041329      2.80e-03  
   40   -2141.5092557732      2.71e-03  
   41   -2141.4799785086      2.78e-03  
   42   -2141.4593495229      2.83e-03  
   43   -2141.4601064807      2.83e-03  
   44   -2141.4561350775      3.11e-03  
   45   -2141.4792945232      3.19e-03  
   46   -2141.5071658391      3.08e-03  
   47   -2141.4280712064      3.42e-03  
   48   -2141.5310406517      2.65e-03  
   49   -2141.5160920924      2.84e-03  
   50   -2140.3913993968      5.06e-03  
   51   -2141.3085756471      3.06e-03  
   52   -2141.4619889180      2.80e-03  
   53   -2141.5775892038      2.35e-03  
   54   -2141.4941496211      2.51e-03  
   55   -2141.4826201600      3.02e-03  
   56   -2141.5327075577      2.42e-03  
   57   -2141.5147990635      2.45e-03  
   58   -2141.5522163978      2.35e-03  
   59   -2141.4848087270      2.53e-03  
   60   -2141.5160244379      2.45e-03  
   61   -2141.5744248314      2.28e-03  
   62   -2141.5658675533      2.34e-03  
   63   -2141.5348286695      2.83e-03  
   64   -2141.3161469315      3.40e-03  
   65   -2141.4772532587      3.29e-03  
   66   -2141.5400471456      2.62e-03  
   67   -2141.2280153250      3.60e-03  
   68   -2141.5208567628      2.81e-03  
   69   -2141.6497736880      1.66e-03  
   70   -2141.5736952510      2.23e-03  
   71   -2141.5193383674      2.89e-03  
   72   -2141.4916627423      3.02e-03  
   73   -2141.5725689148      2.49e-03  
   74   -2141.5360348309      2.40e-03  
   75   -2141.5434198892      2.43e-03  
   76   -2141.5480406128      2.76e-03  
   77   -2141.5278798153      2.85e-03  
   78   -2141.5529625727      2.79e-03  
   79   -2141.6130933728      2.44e-03  
   80   -2141.6842422032      1.56e-03  
   81   -2141.6506096552      1.78e-03  
   82   -2141.5070517046      2.47e-03  
   83   -2141.5968667673      2.09e-03  
   84   -2141.5513566575      2.32e-03  
   85   -2141.2803163965      3.26e-03  
   86   -2141.6015532201      2.62e-03  
   87   -2141.4826249315      2.77e-03  
   88   -2141.6615644160      1.67e-03  
   89   -2141.5410283555      2.37e-03  
   90   -2141.5106069067      2.41e-03  
   91   -2141.5471363747      2.31e-03  
   92   -2141.5489958025      2.30e-03  
   93   -2141.5237867676      2.68e-03  
   94   -2141.4291569764      3.45e-03  
   95   -2141.5469219002      2.60e-03  
   96   -2141.5212742269      2.68e-03  
   97   -2141.5424369727      2.33e-03  
   98   -2141.5929035306      2.00e-03  
   99   -2141.5923113180      2.09e-03  
  100   -2141.5327025243      2.41e-03  
  101   -2141.5992016857      2.30e-03  
  102   -2141.6531717537      1.76e-03  
  103   -2141.6110249094      2.05e-03  
  104   -2141.4992507626      3.14e-03  
  105   -2141.4959563155      2.77e-03  
  106   -2141.5410500923      3.00e-03  
  107   -2141.5832336331      2.30e-03  
  108   -2141.5971257752      2.34e-03  
  109   -2141.5370798493      2.77e-03  
  110   -2141.5867936147      2.37e-03  
  111   -2141.6012937030      2.15e-03  
  112   -2141.6516167234      1.65e-03  
  113   -2141.5786397982      2.46e-03  
  114   -2141.4967123249      2.50e-03  
  115   -2141.5040145558      2.49e-03  
  116   -2141.5094253514      2.47e-03  
  117   -2141.4725761400      2.50e-03  
  118   -2141.2978420982      3.13e-03  
  119   -2141.5434987109      2.42e-03  
  120   -2141.5342221756      2.87e-03  
  121   -2141.6186446956      1.89e-03  
  122   -2141.6300442693      2.19e-03  
  123   -2141.4717688495      3.15e-03  
  124   -2141.5310333551      2.82e-03  
  125   -2141.5438562842      2.74e-03  
  126   -2141.4397808820      3.28e-03  
  127   -2141.5027035057      2.90e-03  
  128   -2141.5173033570      2.78e-03  
  129   -2141.5360182689      2.55e-03  
  130   -2141.4949070409      3.04e-03  
  131   -2141.5092484098      2.98e-03  
  132   -2141.5777219148      2.26e-03  
  133   -2141.4872024134      2.49e-03  
  134   -2141.5488030497      2.34e-03  
  135   -2141.5437828255      2.37e-03  
  136   -2141.5575117792      2.33e-03  
  137   -2141.5245533215      2.46e-03  
  138   -2141.5244715593      2.42e-03  
  139   -2140.3673759794      5.18e-03  
  140   -2141.3317556934      3.04e-03  
  141   -2141.4766114117      2.55e-03  
  142   -2141.4984934965      2.49e-03  
  143   -2141.5386450210      2.38e-03  
  144   -2141.5364530262      3.02e-03  
  145   -2129.8508863386      1.40e-02  
  146   -2140.5308985065      5.14e-03  
  147   -2141.2035459410      4.35e-03  
  148   -2141.4028034878      3.64e-03  
  149   -2141.4786757470      2.89e-03  
  150   -2141.4452006644      3.18e-03  
  151   -2141.5878560399      2.25e-03  
  152   -2141.4996351748      2.92e-03  
  153   -2141.5232512249      2.96e-03  
  154   -2141.5960942634      2.48e-03  
  155   -2141.5890452881      2.38e-03  
  156   -2140.3259434016      5.44e-03  
  157   -2141.3235878890      3.07e-03  
  158   -2141.4916348459      2.84e-03  
  159   -2141.6674122548      1.92e-03  
  160   -2141.5417741586      2.86e-03  
  161   -2141.5124188904      2.85e-03  
  162   -2141.4890516920      2.85e-03  
  163   -2141.4616842058      3.07e-03  
  164   -2141.4455422811      3.13e-03  
  165   -2141.5996319327      2.24e-03  
  166   -2141.5540704407      2.59e-03  
  167   -2141.1980879400      4.56e-03  
  168   -2141.4173418829      3.08e-03  
  169   -2141.5196602914      3.14e-03  
  170   -2141.5365059811      2.97e-03  
  171   -2141.5243770860      3.07e-03  
  172   -2141.5308801667      3.00e-03  
  173   -2141.2164086932      3.81e-03  
  174   -2141.5025853752      3.06e-03  
  175   -2141.3122344672      3.04e-03  
  176   -2141.5638958640      2.55e-03  
  177   -2141.4653021358      2.57e-03  
  178   -2141.4519711376      3.30e-03  
  179   -2141.4119295481      3.43e-03  
  180   -2141.4222863198      3.36e-03  
  181   -2141.4335096666      3.26e-03  
  182   -2141.5217052128      2.80e-03  
  183   -2141.5572960349      2.83e-03  
  184   -2141.5622084545      2.80e-03  
  185   -2141.5816695830      2.64e-03  
  186   -2141.5870065432      2.35e-03  
  187   -2141.5749740821      2.33e-03  
  188   -2141.5602179914      2.35e-03  
  189   -2141.6237734104      2.04e-03  
  190   -2141.5445129873      2.87e-03  
  191   -2137.9426826681      9.22e-03  
  192   -2141.1626776991      4.05e-03  
  193   -2141.2936632483      3.21e-03  
  194   -2141.4226584251      3.12e-03  
  195   -2141.5469875878      2.27e-03  
  196   -2141.5199047366      2.81e-03  
  197   -2141.3949756388      3.04e-03  
  198   -2141.4737685461      2.89e-03  
  199   -2141.4896409555      2.82e-03  
  200   -2141.5482392914      2.32e-03  
  201   -2141.5572143566      2.28e-03  
  202   -2141.5397391921      2.61e-03  
  203   -2141.5922277034      2.04e-03  
  204   -2140.2885741810      6.87e-03  
  205   -2141.1536726695      4.07e-03  
  206   -2141.4610606382      3.37e-03  
  207   -2141.5381308853      2.71e-03  
  208   -2141.4034417256      3.45e-03  
  209   -2140.3560756555      5.26e-03  
  210   -2141.4004141895      3.34e-03  
  211   -2141.4022763389      3.31e-03  
  212   -2141.4106249532      3.27e-03  
  213   -2141.5487261949      2.46e-03  
  214   -2141.5267335655      2.54e-03  
  215   -2141.5270174580      2.54e-03  
  216   -2141.6184433803      2.21e-03  
  217   -2141.5216598876      2.56e-03  
  218   -2141.4573124788      2.61e-03  
  219   -2141.5056533674      2.64e-03  
  220   -2141.6681581537      1.79e-03  
  221   -2141.5495219606      2.43e-03  
  222   -2141.3651883317      3.13e-03  
  223   -2141.5258754109      2.47e-03  
  224   -2141.6191707009      2.12e-03  
  225   -2141.5021313418      2.76e-03  
  226   -2141.4556326077      2.87e-03  
  227   -2141.4662320517      2.85e-03  
  228   -2141.4539352238      2.85e-03  
  229   -2141.3981223847      3.45e-03  
  230   -2141.5997111310      2.11e-03  
  231   -2141.5569383098      2.61e-03  
  232   -2141.5075435030      2.98e-03  
  233   -2141.5182436337      2.92e-03  
  234   -2141.5017967063      3.04e-03  
  235   -2141.3395864571      3.15e-03  
  236   -2141.4664228197      3.17e-03  
  237   -2141.5867944729      2.73e-03  
  238   -2141.5880073233      2.48e-03  
  239   -2141.5997094662      2.48e-03  
  240   -2141.6353316896      2.34e-03  
  241   -2141.4359843298      2.60e-03  
  242   -2141.5166903039      2.98e-03  
  243   -2141.5102264927      3.00e-03  
  244   -2141.5075356922      3.03e-03  
  245   -2141.4597687926      3.12e-03  
  246   -2141.6517057949      1.96e-03  
  247   -2141.5553988290      2.59e-03  
  248   -2141.5206272915      2.77e-03  
  249   -2141.5312835149      2.76e-03  
  250   -2141.5238329977      2.76e-03  
  251   -2141.4244298083      3.33e-03  
  252   -2141.4763879988      2.85e-03  
  253   -2141.5223981845      2.76e-03  
  254   -2141.5292092120      2.78e-03  
  255   -2139.8187707873      7.61e-03  
  256   -2141.5553520093      2.64e-03  
  257   -2141.4359516824      2.64e-03  
  258   -2141.5451952148      2.55e-03  
  259   -2141.5250529224      2.66e-03  
  260   -2141.6357618468      2.08e-03  
  261   -2141.4670995230      2.81e-03  
  262   -2141.4688720543      2.83e-03  
  263   -2141.5225404739      3.18e-03  
  264   -2141.5727334421      2.75e-03  
  265   -2141.5865972537      2.52e-03  
  266   -2141.6362716667      2.06e-03  
  267   -2141.2807623696      3.21e-03  
  268   -2141.6434460904      2.07e-03  
  269   -2141.6384954860      1.85e-03  
  270   -2141.5284385479      2.86e-03  
  271   -2141.6282162845      2.00e-03  
  272   -2141.5346463368      2.62e-03  
  273   -2141.5487734796      2.31e-03  
  274   -2141.5760882839      2.48e-03  
  275   -2141.5310922419      2.35e-03  
  276   -2141.4904057772      2.40e-03  
  277   -2141.5676908647      2.20e-03  
  278   -2141.5859576177      2.16e-03  
  279   -2141.5712023126      2.22e-03  
  280   -2141.5281335268      2.65e-03  
  281   -2141.5317717105      2.78e-03  
  282   -2141.5392243865      2.74e-03  
  283   -2141.3912895066      3.53e-03  
  284   -2141.5685029759      2.46e-03  
  285   -2140.3360231505      5.39e-03  
  286   -2141.2893268890      3.16e-03  
  287   -2141.5246878140      2.91e-03  
  288   -2141.6391711821      1.91e-03  
  289   -2141.6226750312      2.02e-03  
  290   -2141.6342599411      1.75e-03  
  291   -2141.6047328397      2.17e-03  
  292   -2141.5331520188      2.39e-03  
  293   -2141.5255148214      2.41e-03  
  294   -2141.5354743802      2.39e-03  
  295   -2141.5456777829      2.38e-03  
  296   -2141.5666207326      2.32e-03  
  297   -2141.5775080237      2.29e-03  
  298   -2141.6041579275      2.28e-03  
  299   -2141.7035133624      1.29e-03  
  300   -2141.5232396503      2.94e-03  
  301   -2141.6133235061      2.32e-03  
  302   -2141.5955024301      2.41e-03  
  303   -2141.5910233339      2.39e-03  
  304   -2141.5451305275      2.90e-03  
  305   -2141.5052471820      2.72e-03  
  306   -2141.4905923115      2.74e-03  
  307   -2141.4870536461      2.75e-03  
  308   -2141.4924499805      2.74e-03  
  309   -2141.5113400959      2.67e-03  
  310   -2141.5661985342      2.66e-03  
  311   -2141.5466427743      2.32e-03  
  312   -2141.5147737712      2.40e-03  
  313   -2141.5058983577      2.41e-03  
  314   -2141.5713762177      2.67e-03  
  315   -2140.3783689412      5.15e-03  
  316   -2141.3733778716      3.73e-03  
  317   -2141.4994147066      2.97e-03  
  318   -2141.6267973372      2.05e-03  
  319   -2141.3574801401      3.01e-03  
  320   -2141.4518948606      3.12e-03  
  321   -2141.6164655167      2.02e-03  
  322   -2141.6083004991      2.05e-03  
  323   -2141.5266832106      2.70e-03  
  324   -2141.5303217782      2.61e-03  
  325   -2141.5680790380      2.43e-03  
  326   -2141.5372121195      2.37e-03  
  327   -2141.5626887721      2.28e-03  
  328   -2141.5265831943      2.90e-03  
  329   -2141.6200669814      2.08e-03  
  330   -2141.6100731456      2.17e-03  
  331   -2141.5445376944      2.50e-03  
  332   -2141.5939556177      2.16e-03  
  333   -2141.6240638814      2.39e-03  
  334   -2141.4954517109      3.15e-03  
  335   -2141.5581782353      2.57e-03  
  336   -2141.5415128458      2.74e-03  
  337   -2141.4404860132      3.27e-03  
  338   -2141.4669609973      3.14e-03  
  339   -2141.4528070956      3.22e-03  
  340   -2141.4623398051      3.17e-03  
  341   -2141.4326028686      3.31e-03  
  342   -2141.5310109130      2.59e-03  
  343   -2141.4906087782      2.86e-03  
  344   -2141.4136970876      3.35e-03  
  345   -2141.4216611844      2.95e-03  
  346   -2141.5320567877      2.71e-03  
  347   -2141.3247086970      3.10e-03  
  348   -2141.6908733701      1.46e-03  
  349   -2140.5110399529      4.35e-03  
  350   -2141.4562822102      2.64e-03  
  351   -2141.6071069932      2.40e-03  
  352   -2141.5995060262      2.48e-03  
  353   -2141.5622573641      2.80e-03  
  354   -2141.5877092928      2.71e-03  
  355   -2141.5838814624      2.18e-03  
  356   -2141.5850850960      2.18e-03  
  357   -2141.6542059038      1.91e-03  
  358   -2141.5307064383      3.18e-03  
  359   -2141.5561203641      2.94e-03  
  360   -2141.5465899919      2.97e-03  
  361   -2141.5571186994      2.92e-03  
  362   -2141.5363076170      3.05e-03  
  363   -2141.3228748251      3.18e-03  
  364   -2141.6306689846      2.23e-03  
  365   -2141.5085428822      2.40e-03  
  366   -2141.5567710280      2.89e-03  
  367   -2141.4940071729      3.05e-03  
  368   -2141.4705844356      3.14e-03  
  369   -2141.5129255886      2.80e-03  
  370   -2141.5209334225      2.90e-03  
  371   -2141.5312860150      2.88e-03  
  372   -2141.5297074612      2.89e-03  
  373   -2141.4844018162      2.98e-03  
  374   -2141.5950612699      2.29e-03  
  375   -2141.6437862315      1.72e-03  
  376   -2141.6822378109      1.84e-03  
  377   -2141.6681645764      1.88e-03  
  378   -2141.6423353379      2.17e-03  
  379   -2141.3194982760      3.10e-03  
  380   -2141.5275627379      2.61e-03  
  381   -2141.7026148218      1.27e-03  
  382   -2141.6058544965      2.12e-03  
  383   -2141.6139936417      2.05e-03  
  384   -2141.6066956949      2.13e-03  
  385   -2141.5239451305      2.99e-03  
  386   -2141.6713419193      1.91e-03  
  387   -2141.5970194009      2.57e-03  
  388   -2141.5540844888      2.72e-03  
  389   -2141.6267283128      2.41e-03  
  390   -2141.6280161355      2.37e-03  
  391   -2141.5720334205      2.75e-03  
  392   -2141.5611748226      2.75e-03  
  393   -2141.5463702077      2.83e-03  
  394   -2141.5467369214      2.79e-03  
  395   -2141.4929408511      2.45e-03  
  396   -2141.4988268389      2.99e-03  
  397   -2141.2667282687      3.35e-03  
  398   -2141.5204728197      2.87e-03  
  399   -2141.5394025128      2.49e-03  
  400   -2141.5835740220      2.46e-03  
  401   -2141.5450916103      2.72e-03  
  402   -2139.8955350606      7.27e-03  
  403   -2141.4351959808      3.44e-03  
  404   -2141.5403942554      2.73e-03  
  405   -2141.5456051607      3.01e-03  
  406   -2141.4652611989      2.85e-03  
  407   -2141.4441125700      3.19e-03  
  408   -2141.4483950099      3.15e-03  
  409   -2141.4497472617      3.14e-03  
  410   -2141.4636910679      3.36e-03  
  411   -2141.5253716024      2.90e-03  
  412   -2141.4788577894      3.03e-03  
  413   -2141.4755127683      3.05e-03  
  414   -2141.4820981085      3.07e-03  
  415   -2140.4901427459      4.44e-03  
  416   -2141.5945842757      2.14e-03  
  417   -2141.5143611050      2.90e-03  
  418   -2141.5831991225      2.47e-03  
  419   -2141.5828275160      2.52e-03  
  420   -2141.2412438354      3.55e-03  
  421   -2141.4844243931      2.58e-03  
  422   -2141.6071210131      2.15e-03  
  423   -2141.5467123748      2.37e-03  
  424   -2141.5507874696      2.36e-03  
  425   -2141.3926310044      3.59e-03  
  426   -2141.3994688280      3.01e-03  
  427   -2141.4241920138      2.94e-03  
  428   -2141.4575456674      2.87e-03  
  429   -2141.4215919620      2.93e-03  
  430   -2141.4715751023      2.85e-03  
  431   -2140.8617579613      4.65e-03  
  432   -2141.5317678083      2.68e-03  
  433   -2141.4815384655      2.82e-03  
  434   -2141.5266162685      2.78e-03  
  435   -2141.4857823575      3.69e-03  
  436   -2141.6712134034      1.82e-03  
  437   -2140.2385574258      5.95e-03  
  438   -2141.3526952654      3.78e-03  
  439   -2141.4386702804      3.41e-03  
  440   -2141.4441422038      2.74e-03  
  441   -2141.5016923312      3.11e-03  
  442   -2141.5192601972      3.01e-03  
  443   -2141.5127811981      3.03e-03  
  444   -2141.5179089235      2.99e-03  
  445   -2141.5159176194      2.99e-03  
  446   -2141.4719175019      3.19e-03  
  447   -2141.5344876469      2.92e-03  
  448   -2141.5242787674      2.96e-03  
  449   -2141.5939001666      2.57e-03  
  450   -2141.5181851010      2.93e-03  
  451   -2141.4653036761      3.14e-03  
  452   -2141.5384545336      3.10e-03  
  453   -2141.5313139998      3.08e-03  
  454   -2141.5308310517      3.11e-03  
  455   -2141.5243505057      3.12e-03  
  456   -2141.5134386964      3.17e-03  
  457   -2141.5136858699      3.14e-03  
  458   -2141.5194478044      3.06e-03  
  459   -2141.6082341958      2.28e-03  
  460   -2141.4508884285      2.96e-03  
  461   -2141.4148886063      2.94e-03  
  462   -2141.4666733739      2.83e-03  
  463   -2141.4820168518      2.81e-03  
  464   -2141.4760076453      3.31e-03  
  465   -2140.6924225628      5.56e-03  
  466   -2141.3414864771      3.08e-03  
  467   -2141.4465389013      2.91e-03  
  468   -2141.4735628046      2.84e-03  
  469   -2141.4443327125      2.92e-03  
  470   -2141.4151601611      2.97e-03  
  471   -2141.5456149576      2.48e-03  
  472   -2141.4368537036      3.30e-03  
  473   -2141.6531747738      1.95e-03  
  474   -2141.5242633318      2.92e-03  
  475   -2141.5960968242      2.04e-03  
  476   -2141.5753871667      2.19e-03  
  477   -2141.6039680887      2.19e-03  
  478   -2141.4315186904      2.89e-03  
  479   -2141.4718252990      2.86e-03  
  480   -2141.4759672069      2.87e-03  
  481   -2141.5927504150      2.34e-03  
  482   -2135.2374307300      1.34e-02  
  483   -2140.9654590000      5.36e-03  
  484   -2141.2435418666      3.55e-03  
  485   -2141.5638588322      2.60e-03  
  486   -2141.4038175212      2.95e-03  
  487   -2141.5442721684      2.58e-03  
  488   -2141.5628669767      2.24e-03  
  489   -2141.6014131122      2.28e-03  
  490   -2141.5392895550      2.64e-03  
  491   -2140.2052096975      7.08e-03  
  492   -2141.5377080387      2.84e-03  
  493   -2141.6402918438      2.05e-03  
  494   -2141.5640049869      2.30e-03  
  495   -2141.5596082905      2.31e-03  
  496   -2141.5669960297      2.28e-03  
  497   -2141.5050526226      2.84e-03  
  498   -2141.4914954857      2.96e-03  
  499   -2141.4170997948      3.28e-03  
  500   -2141.3812937422      3.59e-03  
  501   -2141.5325807426      2.67e-03  
  502   -2141.5573296465      2.17e-03  
  503   -2141.5706619645      2.23e-03  
  504   -2141.5767847950      2.59e-03  
  505   -2141.6059526389      2.00e-03  
  506   -2141.5244471853      2.39e-03  
  507   -2141.5090147801      2.46e-03  
  508   -2141.5120026224      2.44e-03  
  509   -2141.3276219029      3.17e-03  
  510   -2141.5278698446      3.07e-03  
  511   -2141.5633193459      2.37e-03  
  512   -2141.4786495216      2.47e-03  
  513   -2141.4670080134      2.91e-03  
  514   -2141.4427829920      2.91e-03  
  515   -2141.5473999002      2.69e-03  
  516   -2141.5611962405      2.65e-03  
  517   -2141.5506407715      2.88e-03  
  518   -2141.5503924366      2.87e-03  
  519   -2141.6555224685      1.98e-03  
  520   -2141.5236410031      2.84e-03  
  521   -2141.4825455942      3.06e-03  
  522   -2141.4900418635      2.99e-03  
  523   -2141.5469774645      2.74e-03  
  524   -2141.5352087514      2.83e-03  
  525   -2141.5551139845      2.66e-03  
  526   -2141.5439800394      2.81e-03  
  527   -2141.5236870774      2.89e-03  
  528   -2141.6248574480      2.17e-03  
  529   -2141.5164953845      2.93e-03  
  530   -2141.5159172010      2.94e-03  
  531   -2141.2859626841      3.17e-03  
  532   -2141.5174183123      2.96e-03  
  533   -2141.5126131617      2.96e-03  
  534   -2141.5257004577      2.69e-03  
  535   -2141.3612860492      3.39e-03  
  536   -2141.4256682590      3.25e-03  
  537   -2141.4731036296      3.04e-03  
  538   -2141.5610339669      2.59e-03  
  539   -2141.4570959339      3.07e-03  
  540   -2141.4671628678      3.03e-03  
  541   -2141.5070634523      2.82e-03  
  542   -2141.5116181007      2.78e-03  
  543   -2141.4826557781      2.89e-03  
  544   -2141.3488681979      2.91e-03  
  545   -2141.5334725808      2.69e-03  
  546   -2141.5301958811      2.72e-03  
  547   -2138.0697554800      8.60e-03  
  548   -2141.2311375403      3.57e-03  
  549   -2141.4576670676      3.92e-03  
  550   -2134.7176471983      1.52e-02  
  551   -2140.0815127634      6.35e-03  
  552   -2141.4662064442      3.26e-03  
  553   -2141.4522990324      3.41e-03  
  554   -2141.4584657892      3.33e-03  
  555   -2141.4423746320      2.69e-03  
  556   -2141.5393605420      2.94e-03  
  557   -2141.5497513181      2.66e-03  
  558   -2141.4701227810      3.15e-03  
  559   -2141.4776759518      3.06e-03  
  560   -2140.4572920574      4.80e-03  
  561   -2141.5167879424      2.73e-03  
  562   -2141.4765837795      3.06e-03  
  563   -2141.5967440793      2.34e-03  
  564   -2141.6402692022      2.33e-03  
  565   -2141.6741477713      1.69e-03  
  566   -2141.6561170926      1.93e-03  
  567   -2141.6409321011      2.06e-03  
  568   -2141.5306646330      2.56e-03  
  569   -2141.5409745909      2.54e-03  
  570   -2141.5316887796      2.76e-03  
  571   -2141.4875351609      2.45e-03  
  572   -2141.5497249595      2.65e-03  
  573   -2140.3683554460      5.20e-03  
  574   -2141.3260117410      3.05e-03  
  575   -2141.6730094792      1.67e-03  
  576   -2141.4980925542      2.45e-03  
  577   -2141.4945524803      2.42e-03  
  578   -2141.6358695604      1.97e-03  
  579   -2141.5541900187      2.31e-03  
  580   -2141.5820207447      2.16e-03  
  581   -2141.5310055132      3.02e-03  
  582   -2141.5520399213      2.29e-03  
  583   -2141.6418778258      1.54e-03  
  584   -2141.5626828884      2.79e-03  
  585   -2141.5974566414      2.54e-03  
  586   -2141.3918967765      3.48e-03  
  587   -2141.4375440587      3.31e-03  
  588   -2141.4078209811      3.37e-03  
  589   -2141.6418321872      1.79e-03  
  590   -2141.2979108123      3.12e-03  
  591   -2141.4327212670      3.26e-03  
  592   -2141.5947550326      2.56e-03  
  593   -2141.5454040130      2.66e-03  
  594   -2141.4975948261      3.05e-03  
  595   -2141.5031455339      2.94e-03  
  596   -2141.4989048358      2.98e-03  
  597   -2141.4878806098      3.03e-03  
  598   -2141.5237556114      2.88e-03  
  599   -2141.5611900460      2.56e-03  
  600   -2141.5580425346      2.29e-03  
  601   -2141.3322691538      3.01e-03  
  602   -2141.5855306830      2.26e-03  
  603   -2141.4893951472      2.53e-03  
  604   -2141.4851750324      2.54e-03  
  605   -2141.4918976474      3.03e-03  
  606   -2141.5506461068      2.78e-03  
  607   -2141.2778485084      3.21e-03  
  608   -2141.4834334346      2.53e-03  
  609   -2141.4741661704      3.28e-03  
  610   -2141.5115352213      2.86e-03  
  611   -2141.4807026284      3.09e-03  
  612   -2141.4787994746      3.09e-03  
  613   -2141.4755309064      3.13e-03  
  614   -2141.4714499711      3.16e-03  
  615   -2141.4746650112      3.14e-03  
  616   -2141.4784718454      3.10e-03  
  617   -2141.4629537175      3.28e-03  
  618   -2141.4882768319      3.48e-03  
  619   -2141.5361392179      3.00e-03  
  620   -2141.4568241605      3.13e-03  
  621   -2141.4876188606      2.95e-03  
  622   -2141.4020693707      2.93e-03  
  623   -2137.7073339409      1.06e-02  
  624   -2141.1292284155      4.35e-03  
  625   -2141.2690176810      3.52e-03  
  626   -2141.5464728778      2.89e-03  
  627   -2141.5801725755      2.37e-03  
  628   -2141.5211861529      2.99e-03  
  629   -2141.5861810811      2.42e-03  
  630   -2141.6113041296      2.23e-03  
  631   -2141.5286499612      2.92e-03  
  632   -2141.5019233055      2.95e-03  
  633   -2141.5099342319      2.98e-03  
  634   -2141.5542602030      2.51e-03  
  635   -2141.6462010448      1.73e-03  
  636   -2141.6664290159      1.62e-03  
  637   -2141.5095429799      2.38e-03  
  638   -2141.6470802115      1.97e-03  
  639   -2141.6398150029      2.03e-03  
  640   -2141.5548154026      2.68e-03  
  641   -2141.3116429775      3.18e-03  
  642   -2141.5269599727      2.53e-03  
  643   -2141.4674587269      3.00e-03  
  644   -2141.4663373483      3.01e-03  
  645   -2141.4741583200      2.96e-03  
  646   -2141.4500966023      3.12e-03  
  647   -2141.4709272730      2.95e-03  
  648   -2141.4755478393      3.06e-03  
  649   -2141.4397745224      3.16e-03  
  650   -2141.4407635674      3.16e-03  
  651   -2141.5240778799      2.33e-03  
  652   -2141.3873420012      3.51e-03  
  653   -2141.4543914578      3.15e-03  
  654   -2141.6308283751      2.21e-03  
  655   -2141.3421029315      3.15e-03  
  656   -2141.3361713870      3.13e-03  
  657   -2141.3960600972      3.09e-03  
  658   -2141.5868765059      2.22e-03  
  659   -2141.4596922126      3.27e-03  
  660   -2141.4480739898      3.31e-03  
  661   -2141.5101494241      2.99e-03  
  662   -2141.4839286268      2.93e-03  
  663   -2141.5118680378      2.82e-03  
  664   -2141.4450294201      3.27e-03  
  665   -2141.4718856520      2.93e-03  
  666   -2141.4579577723      3.04e-03  
  667   -2134.8369548326      1.07e-02  
  668   -2141.3290365314      3.60e-03  
  669   -2141.5196504562      2.87e-03  
  670   -2141.4581673191      2.49e-03  
  671   -2141.4646785450      3.06e-03  
  672   -2141.5524712088      2.58e-03  
  673   -2141.5329428731      2.64e-03  
  674   -2141.6400211494      1.84e-03  
  675   -2141.5842401834      2.64e-03  
  676   -2141.4571053538      2.88e-03  
  677   -2141.4579747816      2.88e-03  
  678   -2141.4477197120      2.91e-03  
  679   -2141.4561647660      2.88e-03  
  680   -2141.4583207311      2.88e-03  
  681   -2141.4753889188      2.82e-03  
  682   -2141.5621940119      2.91e-03  
  683   -2141.5777004325      2.44e-03  
  684   -2141.6023682755      2.53e-03  
  685   -2141.6516613766      2.03e-03  
  686   -2141.4347395589      2.63e-03  
  687   -2141.6233913254      2.14e-03  
  688   -2141.5609020530      2.31e-03  
  689   -2141.5322133071      2.68e-03  
  690   -2141.4496838648      3.35e-03  
  691   -2141.6373543900      2.12e-03  
  692   -2141.5136384089      2.71e-03  
  693   -2141.5072780928      2.74e-03  
  694   -2141.5214436024      2.69e-03  
  695   -2141.4969276320      2.76e-03  
  696   -2141.5143438893      2.71e-03  
  697   -2141.5167706103      2.70e-03  
  698   -2141.6468161873      1.92e-03  
  699   -2141.5684024539      2.28e-03  
  700   -2141.5275767391      2.37e-03  
  701   -2141.4568588210      3.33e-03  
  702   -2141.4697791639      3.06e-03  
  703   -2141.5154937585      2.93e-03  
  704   -2140.3694443488      5.17e-03  
  705   -2141.3099647020      3.03e-03  
  706   -2141.5234202633      3.20e-03  
  707   -2141.5217696016      3.17e-03  
  708   -2141.4387448507      3.21e-03  
  709   -2141.4399431125      3.21e-03  
  710   -2141.4331357672      3.24e-03  
  711   -2141.4338370732      3.24e-03  
  712   -2141.4310223825      3.25e-03  
  713   -2141.4291896132      3.27e-03  
  714   -2141.4754163112      2.54e-03  
  715   -2140.5271520382      5.10e-03  
  716   -2141.5010134862      2.66e-03  
  717   -2141.4424960891      3.11e-03  
  718   -2141.5768712339      2.36e-03  
  719   -2141.5520400752      2.59e-03  
  720   -2141.5433478630      2.60e-03  
  721   -2133.4646954521      1.41e-02  
  722   -2140.9949191237      5.20e-03  
  723   -2141.2477673372      3.52e-03  
  724   -2141.5201980027      3.14e-03  
  725   -2141.5099373339      2.38e-03  
  726   -2141.5577574063      2.27e-03  
  727   -2141.5631081669      2.24e-03  
  728   -2141.5533955750      2.54e-03  
  729   -2141.5251316730      2.66e-03  
  730   -2141.5015589839      2.73e-03  
  731   -2141.5339271494      2.64e-03  
  732   -2141.4265464978      2.92e-03  
  733   -2141.4673881353      3.04e-03  
  734   -2141.4751962213      3.08e-03  
  735   -2141.4722836224      3.03e-03  
  736   -2141.4818308579      2.94e-03  
  737   -2141.4965236318      2.87e-03  
  738   -2141.3258441249      3.10e-03  
  739   -2141.4714651896      2.98e-03  
  740   -2141.5242717689      2.77e-03  
  741   -2141.5396183095      2.72e-03  
  742   -2141.5377318580      2.75e-03  
  743   -2141.3975512904      2.99e-03  
  744   -2141.5593101684      2.39e-03  
  745   -2141.5363897105      2.72e-03  
  746   -2141.5073375308      2.77e-03  
  747   -2141.5210284285      2.36e-03  
  748   -2141.5084409146      2.81e-03  
  749   -2141.5438334952      2.66e-03  
  750   -2141.4707647202      2.98e-03  
  751   -2141.4851773954      2.89e-03  
  752   -2141.5345566299      2.73e-03  
  753   -2141.6173368815      1.96e-03  
  754   -2141.1906202811      3.95e-03  
  755   -2141.3071929746      3.24e-03  
  756   -2141.5905245245      2.25e-03  
  757   -2141.4259780091      2.91e-03  
  758   -2141.4670055097      2.72e-03  
  759   -2141.4314334494      2.89e-03  
  760   -2141.5244065819      2.72e-03  
  761   -2141.5141633863      2.73e-03  
  762   -2141.5296970934      2.68e-03  
  763   -2141.4582620199      2.81e-03  
  764   -2141.4975121124      2.78e-03  
  765   -2141.5306045849      2.92e-03  
  766   -2141.5233053468      3.08e-03  
  767   -2141.5202276223      3.11e-03  
  768   -2141.5247681091      3.08e-03  
  769   -2141.5491563848      2.98e-03  
  770   -2141.5169594496      3.10e-03  
  771   -2141.1996561935      4.05e-03  
  772   -2141.4391287941      3.38e-03  
  773   -2141.5257901555      2.95e-03  
  774   -2141.4374956355      3.15e-03  
  775   -2141.3817339989      2.85e-03  
  776   -2141.5177401028      3.12e-03  
  777   -2141.5177293667      3.14e-03  
  778   -2141.5178597039      3.09e-03  
  779   -2141.4155592068      2.95e-03  
  780   -2141.5347926325      2.80e-03  
  781   -2141.2944285485      3.31e-03  
  782   -2141.4819762430      2.59e-03  
  783   -2141.4668846011      2.79e-03  
  784   -2141.5609718168      2.63e-03  
  785   -2141.5540801661      2.38e-03  
  786   -2141.4326954707      2.92e-03  
  787   -2141.3500271881      3.06e-03  
  788   -2141.6148616864      2.05e-03  
  789   -2141.5597466204      2.52e-03  
  790   -2141.4101209801      3.47e-03  
  791   -2141.5269839214      2.68e-03  
  792   -2141.5551100442      2.66e-03  
  793   -2141.5378695082      2.62e-03  
  794   -2141.5472129972      2.59e-03  
  795   -2141.4127309420      2.91e-03  
  796   -2141.4888741713      2.78e-03  
  797   -2141.5064577643      2.74e-03  
  798   -2141.5143635726      2.72e-03  
  799   -2141.5498538233      2.59e-03  
  800   -2141.5366065123      2.67e-03  
  801   -2141.5945569614      2.13e-03  
  802   -2141.4975327782      2.95e-03  
  803   -2137.9586411615      9.04e-03  
  804   -2141.1836292322      3.90e-03  
  805   -2141.2997002274      3.19e-03  
  806   -2141.5610104412      2.81e-03  
  807   -2141.5749512152      2.15e-03  
  808   -2141.5963301550      2.35e-03  
  809   -2141.5293317050      2.82e-03  
  810   -2141.5885880549      2.08e-03  
  811   -2141.5384468038      2.28e-03  
  812   -2141.6120807351      2.47e-03  
  813   -2141.5584675908      2.25e-03  
  814   -2141.5268087800      2.34e-03  
  815   -2141.5317438955      2.32e-03  
  816   -2141.4869838982      2.42e-03  
  817   -2141.4968670265      2.79e-03  
  818   -2141.4755729511      3.08e-03  
  819   -2141.4486785298      3.12e-03  
  820   -2141.4671310666      3.04e-03  
  821   -2138.0822736982      8.56e-03  
  822   -2141.2017756916      3.81e-03  
  823   -2141.3922832869      3.52e-03  
  824   -2141.3284118811      3.05e-03  
  825   -2141.4687610219      2.99e-03  
  826   -2141.4465779949      3.13e-03  
  827   -2141.4473230896      3.12e-03  
  828   -2141.5613637801      2.84e-03  
  829   -2141.4890956664      2.74e-03  
  830   -2141.4638785138      2.74e-03  
  831   -2141.4692120060      3.02e-03  
  832   -2140.5939540960      4.49e-03  
  833   -2141.4529079782      2.87e-03  
  834   -2141.4339369201      3.47e-03  
  835   -2141.5840423604      2.41e-03  
  836   -2141.5361244802      2.78e-03  
  837   -2141.5389702663      2.75e-03  
  838   -2141.4462119446      2.92e-03  
  839   -2141.4233187825      2.94e-03  
  840   -2132.8422908045      1.29e-02  
  841   -2141.1818637699      3.98e-03  
  842   -2141.3104535297      3.10e-03  
  843   -2141.4602422257      3.09e-03  
  844   -2141.4582020341      3.09e-03  
  845   -2141.4610768184      3.02e-03  
  846   -2141.4448470519      3.09e-03  
  847   -2141.4220201858      2.98e-03  
  848   -2141.4934590645      2.51e-03  
  849   -2141.4413537161      3.16e-03  
  850   -2141.4362516692      3.18e-03  
  851   -2141.5105389526      3.13e-03  
  852   -2141.4579018717      3.19e-03  
  853   -2141.4243731139      3.24e-03  
  854   -2141.4244167956      3.23e-03  
  855   -2141.4248686644      3.24e-03  
  856   -2141.4304984384      3.23e-03  
  857   -2141.4326405966      3.25e-03  
  858   -2137.7090881527      1.02e-02  
  859   -2141.1330876332      4.30e-03  
  860   -2141.2816493567      3.27e-03  
  861   -2141.4382803129      3.25e-03  
  862   -2141.4228843378      3.28e-03  
  863   -2140.4879351102      4.77e-03  
  864   -2140.5176045779      4.44e-03  
  865   -2141.3535894429      3.07e-03  
  866   -2141.4612063570      2.95e-03  
  867   -2141.4583799854      3.75e-03  
  868   -2141.3565284016      4.18e-03  
  869   -2141.5392448733      2.83e-03  
  870   -2141.5827280758      2.44e-03  
  871   -2141.4973421538      3.04e-03  
  872   -2141.4853373250      2.92e-03  
  873   -2141.5052501337      2.67e-03  
  874   -2141.4347947155      2.96e-03  
  875   -2141.5344410491      2.88e-03  
  876   -2140.3665532060      5.29e-03  
  877   -2141.3158876449      3.14e-03  
  878   -2141.5458786661      2.68e-03  
  879   -2141.4228945604      3.01e-03  
  880   -2141.4906996965      2.43e-03  
  881   -2141.6733271378      1.87e-03  
  882   -2141.4285373628      2.94e-03  
  883   -2141.4561249576      3.09e-03  
  884   -2141.4608492558      3.06e-03  
  885   -2141.5097891113      2.96e-03  
  886   -2141.3417450271      2.99e-03  
  887   -2141.5130304386      3.33e-03  
  888   -2141.5454070105      3.03e-03  
  889   -2141.5466509076      3.02e-03  
  890   -2141.4575780823      3.16e-03  
  891   -2141.4418549982      3.19e-03  
  892   -2141.4476113665      3.18e-03  
  893   -2140.5871164308      5.50e-03  
  894   -2141.3072961568      3.05e-03  
  895   -2141.5454414236      3.03e-03  
  896   -2141.4601276374      2.67e-03  
  897   -2141.5474361459      2.81e-03  
  898   -2141.4998915330      2.91e-03  
  899   -2141.4455892125      3.14e-03  
  900   -2141.4469732449      3.14e-03  
  901   -2141.4690772991      3.06e-03  
  902   -2141.3789189658      3.11e-03  
  903   -2141.4386636653      3.23e-03  
  904   -2141.4277698358      3.25e-03  
  905   -2141.4284338382      3.24e-03  
  906   -2141.4290062093      3.24e-03  
  907   -2141.4314828513      3.23e-03  
  908   -2141.4293881582      3.25e-03  
  909   -2141.4300134588      3.23e-03  
  910   -2137.9617800987      9.09e-03  
  911   -2141.1914537120      3.88e-03  
  912   -2141.3371128047      3.15e-03  
  913   -2131.9264783941      1.40e-02  
  914   -2140.2909051847      6.52e-03  
  915   -2141.4130924553      2.81e-03  
  916   -2141.4976544453      3.02e-03  
  917   -2141.4701227313      3.23e-03  
  918   -2141.5638349572      2.76e-03  
  919   -2141.5398622217      2.35e-03  
  920   -2141.5280120866      2.36e-03  
  921   -2141.5773716955      2.18e-03  
  922   -2141.5403440440      2.30e-03  
  923   -2141.4989603822      2.89e-03  
  924   -2141.5514666688      2.25e-03  
  925   -2141.5429414212      2.29e-03  
  926   -2141.5639880797      2.26e-03  
  927   -2141.6194535801      2.13e-03  
  928   -2141.5958037088      2.49e-03  
  929   -2141.5260634858      2.86e-03  
  930   -2141.4414331037      3.20e-03  
  931   -2141.5518043813      2.40e-03  
  932   -2141.4681624078      2.88e-03  
  933   -2141.3926526434      2.90e-03  
  934   -2141.5742838066      2.57e-03  
  935   -2141.6206323827      2.44e-03  
  936   -2141.6046448160      2.27e-03  
  937   -2141.6251712721      2.05e-03  
  938   -2141.6311510494      2.17e-03  
  939   -2141.5380279268      2.54e-03  
  940   -2141.5387816263      2.74e-03  
  941   -2141.5794498338      2.41e-03  
  942   -2141.5676415402      2.22e-03  
  943   -2141.5723211252      2.50e-03  
  944   -2141.5310422405      2.91e-03  
  945   -2141.6291969814      2.03e-03  
  946   -2141.6311872451      1.94e-03  
  947   -2141.5462345864      2.63e-03  
  948   -2141.5534722666      2.61e-03  
  949   -2141.5376642908      2.66e-03  
  950   -2141.5333226914      2.66e-03  
  951   -2141.6439691179      1.94e-03  
  952   -2141.6782193534      1.51e-03  
  953   -2141.6262962871      2.26e-03  
  954   -2141.5454933605      2.55e-03  
  955   -2141.5520636627      2.59e-03  
  956   -2141.5415799409      2.60e-03  
  957   -2141.6144719459      2.18e-03  
  958   -2141.6416156813      2.01e-03  
  959   -2141.4387035852      3.23e-03  
  960   -2141.4630320332      3.12e-03  
  961   -2141.4497283196      3.12e-03  
  962   -2141.4679734589      3.22e-03  
  963   -2141.4766526662      3.03e-03  
  964   -2141.4592231538      3.10e-03  
  965   -2141.4736176115      3.07e-03  
  966   -2141.4619938472      3.10e-03  
  967   -2141.4498251476      3.14e-03  
  968   -2141.3826691744      3.64e-03  
  969   -2141.4649452554      3.75e-03  
  970   -2141.5385172368      2.40e-03  
  971   -2141.6130038362      2.55e-03  
  972   -2141.5353419205      3.06e-03  
  973   -2141.5376424720      3.00e-03  
  974   -2141.5335115268      3.03e-03  
  975   -2141.5244434542      3.08e-03  
  976   -2141.5355441843      3.04e-03  
  977   -2141.5452380283      2.97e-03  
  978   -2141.5857626482      2.66e-03  
  979   -2141.5539113277      2.97e-03  
  980   -2141.5713641517      2.83e-03  
  981   -2141.6359740529      2.30e-03  
  982   -2141.5741320715      2.38e-03  
  983   -2141.5734851338      2.47e-03  
  984   -2141.3376934718      4.00e-03  
  985   -2141.4018720061      3.11e-03  
  986   -2141.4647121012      2.49e-03  
  987   -2141.4401053416      3.16e-03  
  988   -2141.3598406011      3.09e-03  
  989   -2141.4866444750      2.88e-03  
  990   -2141.4920586851      2.87e-03  
  991   -2141.4785044400      2.90e-03  
  992   -2141.4624569921      2.94e-03  
  993   -2141.5143630426      2.85e-03  
  994   -2141.4431724112      2.98e-03  
  995   -2141.4658288856      2.90e-03  
  996   -2141.4358181458      2.97e-03  
  997   -2141.4401594967      3.39e-03  
  998   -2141.5549137077      2.57e-03  
  999   -2141.4416696834      3.14e-03  
 1000   -2141.6185240553      2.22e-03  
 1001   -2141.4582701095      2.89e-03  
 1002   -2141.4917310303      2.58e-03  
 1003   -2141.6880779565      1.51e-03  
 1004   -2141.3558929534      3.06e-03  
 1005   -2141.5247814975      2.93e-03  
 1006   -2141.6210317239      2.10e-03  
 1007   -2141.6398181086      1.67e-03  
 1008   -2141.5390828750      2.86e-03  
 1009   -2141.5564571156      2.80e-03  
 1010   -2141.6567623688      2.01e-03  
 1011   -2141.6771035484      1.81e-03  
 1012   -2141.6498302382      1.73e-03  
 1013   -2141.6284380804      1.93e-03  
 1014   -2141.5672720671      2.38e-03  
 1015   -2141.6004419739      2.18e-03  
 1016   -2141.6070994949      2.40e-03  
 1017   -2141.4280905242      3.38e-03  
 1018   -2141.4013182630      3.43e-03  
 1019   -2141.5644510612      2.46e-03  
 1020   -2141.5241190325      2.86e-03  
 1021   -2141.4475614302      2.84e-03  
 1022   -2141.4401881407      2.79e-03  
 1023   -2141.5402640883      2.98e-03  
 1024   -2141.5392596997      2.97e-03  
 1025   -2141.6516343771      1.95e-03  
 1026   -2141.5519939161      2.42e-03  
 1027   -2141.4774385262      2.72e-03  
 1028   -2141.4512267423      2.78e-03  
 1029   -2141.5570120575      2.52e-03  
 1030   -2141.5317497906      2.94e-03  
 1031   -2141.5854301036      2.68e-03  
 1032   -2141.5866063047      2.14e-03  
 1033   -2141.5697312869      2.44e-03  
 1034   -2141.5413347562      2.56e-03  
 1035   -2141.2769627975      3.21e-03  
 1036   -2141.4153246321      3.39e-03  
 1037   -2141.5045010952      2.47e-03  
 1038   -2141.5586214510      2.55e-03  
 1039   -2141.5524404096      2.56e-03  
 1040   -2141.5824522920      2.39e-03  
 1041   -2141.4595988102      3.07e-03  
 1042   -2141.6264935007      2.10e-03  
 1043   -2141.5799282670      2.69e-03  
 1044   -2141.5287017154      2.61e-03  
 1045   -2141.4615548694      2.85e-03  
 1046   -2141.6014229004      2.57e-03  
 1047   -2141.5017086438      2.77e-03  
 1048   -2141.4623332274      2.88e-03  
 1049   -2141.4348600935      2.95e-03  
 1050   -2141.4834839642      2.85e-03  
 1051   -2141.6298713297      1.95e-03  
 1052   -2140.4110081441      5.00e-03  
 1053   -2141.5599635195      2.99e-03  
 1054   -2141.5621771166      2.34e-03  
 1055   -2141.5457764909      2.38e-03  
 1056   -2141.6409160723      1.95e-03  
 1057   -2141.4745871317      2.81e-03  
 1058   -2140.1367738742      7.12e-03  
 1059   -2141.4630934043      3.24e-03  
 1060   -2141.4872441836      2.92e-03  
 1061   -2141.4766087321      2.99e-03  
 1062   -2141.4689645242      3.11e-03  
 1063   -2141.5705267684      2.66e-03  
 1064   -2141.6576868055      1.90e-03  
 1065   -2141.5874461773      2.25e-03  
 1066   -2141.6284744520      2.07e-03  
 1067   -2141.6594113217      1.96e-03  
 1068   -2141.6132572639      2.24e-03  
 1069   -2141.5305926616      2.35e-03  
 1070   -2141.6465356510      1.53e-03  
 1071   -2141.5881731833      2.71e-03  
 1072   -2141.6456884697      2.08e-03  
 1073   -2141.5773955853      2.56e-03  
 1074   -2141.5240506799      2.77e-03  
 1075   -2141.5012943703      2.86e-03  
 1076   -2141.5054326355      2.83e-03  
 1077   -2141.5058480958      2.82e-03  
 1078   -2141.4896576224      2.94e-03  
 1079   -2141.4824725892      2.99e-03  
 1080   -2141.4918765110      2.92e-03  
 1081   -2141.5771483116      2.43e-03  
 1082   -2140.3953671183      5.05e-03  
 1083   -2141.3178088714      3.03e-03  
 1084   -2141.4595323548      3.25e-03  
 1085   -2141.5566448708      2.58e-03  
 1086   -2141.5362156988      2.87e-03  
 1087   -2141.4821397721      2.59e-03  
 1088   -2141.5580654060      2.39e-03  
 1089   -2141.5558646498      2.42e-03  
 1090   -2141.5817630810      2.36e-03  
 1091   -2141.6021237672      2.21e-03  
 1092   -2141.5904876001      2.26e-03  
 1093   -2141.5003511253      2.49e-03  
 1094   -2141.5129919517      2.79e-03  
 1095   -2141.4711899470      2.82e-03  
 1096   -2141.5217617755      2.66e-03  
 1097   -2141.4304040124      3.21e-03  
 1098   -2141.4871551552      2.75e-03  
 1099   -2134.2154487848      1.36e-02  
 1100   -2141.0137894402      5.07e-03  
 1101   -2141.2522239205      3.49e-03  
 1102   -2141.4646378345      2.81e-03  
 1103   -2141.4955720032      2.73e-03  
 1104   -2141.5201730779      2.77e-03  
 1105   -2141.4959637643      3.02e-03  
 1106   -2141.5021122346      2.84e-03  
 1107   -2141.5308068377      2.96e-03  
 1108   -2141.4629429000      3.10e-03  
 1109   -2141.4469054662      2.91e-03  
 1110   -2141.4721827664      2.52e-03  
 1111   -2141.4360713179      3.16e-03  
 1112   -2141.4444939945      3.12e-03  
 1113   -2141.5529211535      2.80e-03  
 1114   -2141.5522218101      2.75e-03  
 1115   -2141.5794022171      2.38e-03  
 1116   -2141.4054117871      3.05e-03  
 1117   -2141.2918358224      3.21e-03  
 1118   -2141.5948872185      2.53e-03  
 1119   -2141.5990190671      2.25e-03  
 1120   -2141.5866907078      2.25e-03  
 1121   -2141.5188289094      2.44e-03  
 1122   -2141.5341076707      2.86e-03  
 1123   -2141.5099564012      2.83e-03  
 1124   -2141.5910869386      2.53e-03  
 1125   -2141.5318119158      2.74e-03  
 1126   -2141.5472879862      2.71e-03  
 1127   -2141.5598841342      2.55e-03  
 1128   -2141.5584698906      2.68e-03  
 1129   -2141.5544567737      2.73e-03  
 1130   -2141.5524465545      2.69e-03  
 1131   -2141.5208127349      2.77e-03  
 1132   -2141.4942482296      2.81e-03  
 1133   -2141.4878502949      2.84e-03  
 1134   -2141.5947316307      2.41e-03  
 1135   -2141.1763118344      4.27e-03  
 1136   -2141.5152022477      2.45e-03  
 1137   -2141.5448064765      2.39e-03  
 1138   -2141.5377369970      3.02e-03  
 1139   -2141.4264326601      2.92e-03  
 1140   -2141.5601267761      2.93e-03  
 1141   -2141.6270387691      2.39e-03  
 1142   -2141.5754454032      2.22e-03  
 1143   -2141.5880701214      2.25e-03  
 1144   -2141.6491654475      1.74e-03  
 1145   -2141.6383441383      1.83e-03  
 1146   -2141.6788189160      1.62e-03  
 1147   -2141.5365344060      2.76e-03  
 1148   -2141.6754213368      1.57e-03  
 1149   -2141.6679791864      1.59e-03  
 1150   -2141.3881834450      2.98e-03  
 1151   -2141.6902615463      1.47e-03  
 1152   -2141.6524008028      1.85e-03  
 1153   -2141.6823710114      1.55e-03  
 1154   -2141.6020461748      2.40e-03  
 1155   -2141.6711455176      1.71e-03  
 1156   -2141.5563452763      2.52e-03  
 1157   -2141.4804023848      2.77e-03  
 1158   -2141.5113557516      2.66e-03  
 1159   -2141.4271875197      2.98e-03  
 1160   -2141.6033601501      2.12e-03  
 1161   -2141.4502377158      2.87e-03  
 1162   -2141.5009091351      2.93e-03  
 1163   -2141.5064443686      2.90e-03  
 1164   -2141.4925854622      3.10e-03  
 1165   -2141.5970947457      2.42e-03  
 1166   -2141.5710177332      2.82e-03  
 1167   -2141.5451017235      2.51e-03  
 1168   -2141.5693344288      2.55e-03  
 1169   -2141.6035636894      2.16e-03  
 1170   -2141.4875879760      2.50e-03  
 1171   -2141.5054585679      2.95e-03  
 1172   -2141.5924817859      2.67e-03  
 1173   -2141.4859459151      3.04e-03  
 1174   -2141.5720774847      2.58e-03  
 1175   -2141.5590365643      2.57e-03  
 1176   -2141.4032498908      3.52e-03  
 1177   -2141.5165999582      2.86e-03  
 1178   -2141.6265635674      2.03e-03  
 1179   -2141.5145795724      2.41e-03  
 1180   -2141.5074095361      2.45e-03  
 1181   -2141.5192018103      2.42e-03  
 1182   -2141.5275594673      2.40e-03  
 1183   -2140.3915923300      5.05e-03  
 1184   -2141.3258429618      2.96e-03  
 1185   -2141.3566630166      3.01e-03  
 1186   -2141.4751119563      3.14e-03  
 1187   -2141.5557013827      2.99e-03  
 1188   -2141.5511432441      2.99e-03  
 1189   -2141.5436231342      2.98e-03  
 1190   -2141.5531547477      2.91e-03  
 1191   -2141.4409299893      3.26e-03  
 1192   -2141.4969742816      2.72e-03  
 1193   -2141.4481383504      3.16e-03  
 1194   -2141.4424940761      3.11e-03  
 1195   -2141.4429775596      3.09e-03  
 1196   -2141.4300329241      3.22e-03  
 1197   -2141.5381070064      2.98e-03  
 1198   -2141.5154041766      2.99e-03  
 1199   -2141.3992373711      2.99e-03  
 1200   -2137.9973168407      8.90e-03  
 1201   -2141.1965013665      3.84e-03  
 1202   -2140.4621472829      4.96e-03  
 1203   -2141.3726408340      3.60e-03  
 1204   -2141.5889455056      2.35e-03  
 1205   -2141.5626642513      2.65e-03  
 1206   -2141.5615026350      2.39e-03  
 1207   -2141.5560164436      2.45e-03  
 1208   -2141.6113871181      2.23e-03  
 1209   -2141.4290113110      3.32e-03  
 1210   -2141.4325073262      3.31e-03  
 1211   -2141.4868005175      3.07e-03  
 1212   -2141.4776673518      3.06e-03  
 1213   -2141.5229054404      2.79e-03  
 1214   -2141.5534890139      2.47e-03  
 1215   -2141.3207673231      3.29e-03  
 1216   -2141.5048789744      2.99e-03  
 1217   -2141.5127466350      2.93e-03  
 1218   -2141.5383737627      2.36e-03  
 1219   -2141.4858882294      2.71e-03  
 1220   -2141.5689373627      2.43e-03  
 1221   -2141.6165170349      2.35e-03  
 1222   -2141.6216756462      2.34e-03  
 1223   -2141.3554530965      3.01e-03  
 1224   -2141.6221612107      2.09e-03  
 1225   -2141.5421729948      2.41e-03  
 1226   -2141.5540705542      2.37e-03  
 1227   -2141.5491126801      2.40e-03  
 1228   -2141.5545375906      2.65e-03  
 1229   -2141.5916652719      2.21e-03  
 1230   -2141.5365375567      2.42e-03  
 1231   -2141.5781319772      2.23e-03  
 1232   -2141.5914935721      2.47e-03  
 1233   -2141.5908728675      2.52e-03  
 1234   -2141.4884476626      2.46e-03  
 1235   -2141.4187259925      3.03e-03  
 1236   -2141.5002291071      2.65e-03  
 1237   -2141.4326318951      2.92e-03  
 1238   -2141.5078865988      2.98e-03  
 1239   -2141.5605635258      2.51e-03  
 1240   -2141.4973983091      2.98e-03  
 1241   -2141.5411723201      2.54e-03  
 1242   -2141.5637329598      2.59e-03  
 1243   -2141.6086959370      2.10e-03  
 1244   -2141.1155539221      4.26e-03  
 1245   -2141.2959982424      3.10e-03  
 1246   -2141.4938181520      2.49e-03  
 1247   -2141.5100591449      2.48e-03  
 1248   -2141.5251492450      2.45e-03  
 1249   -2141.5703599868      2.79e-03  
 1250   -2141.5623882105      2.35e-03  
 1251   -2141.5545457544      2.39e-03  
 1252   -2141.5150220247      2.49e-03  
 1253   -2141.4993169565      2.61e-03  
 1254   -2141.5108322171      2.53e-03  
 1255   -2141.4999720813      2.54e-03  
 1256   -2141.5264252918      2.48e-03  
 1257   -2137.9423935650      9.24e-03  
 1258   -2140.8037379291      5.96e-03  
 1259   -2141.4175386590      3.41e-03  
 1260   -2141.5022617843      2.92e-03  
 1261   -2135.3090478383      1.35e-02  
 1262   -2141.0130448922      5.10e-03  
 1263   -2141.2621693959      3.41e-03  
 1264   -2141.4290384181      2.99e-03  
 1265   -2141.4166177848      3.37e-03  
 1266   -2141.5359530923      3.02e-03  
 1267   -2141.5242888593      2.49e-03  
 1268   -2141.5323338417      2.96e-03  
 1269   -2141.5782105620      2.47e-03  
 1270   -2141.5465308915      2.83e-03  
 1271   -2141.5222303851      2.36e-03  
 1272   -2141.5641134527      2.69e-03  
 1273   -2141.5485292080      2.83e-03  
 1274   -2141.5439262154      2.85e-03  
 1275   -2141.5687415562      2.72e-03  
 1276   -2141.4920293663      2.98e-03  
 1277   -2141.5275832655      2.71e-03  
 1278   -2141.4553245453      2.91e-03  
 1279   -2133.0296974870      1.34e-02  
 1280   -2141.1342031590      4.26e-03  
 1281   -2141.2983923732      3.12e-03  
 1282   -2141.4305579177      3.21e-03  
 1283   -2141.4746425518      2.93e-03  
 1284   -2141.5127726187      2.79e-03  
 1285   -2141.4455686895      3.14e-03  
 1286   -2141.4859453888      2.71e-03  
 1287   -2141.4543378385      2.98e-03  
 1288   -2141.5034722066      2.84e-03  
 1289   -2141.4524601851      2.96e-03  
 1290   -2141.4550537241      2.93e-03  
 1291   -2141.4822437254      3.37e-03  
 1292   -2140.5384886091      4.68e-03  
 1293   -2141.4481316249      3.21e-03  
 1294   -2141.3886319642      3.01e-03  
 1295   -2141.5353104077      2.68e-03  
 1296   -2141.4421592271      3.08e-03  
 1297   -2132.5344757448      1.29e-02  
 1298   -2141.1585142671      4.15e-03  
 1299   -2141.4009773962      3.37e-03  
 1300   -2141.4255531485      3.31e-03  
 1301   -2141.5818302440      2.51e-03  
 1302   -2141.6591098485      1.44e-03  
 1303   -2141.4645769855      2.84e-03  
 1304   -2141.6542717448      1.81e-03  
 1305   -2141.6265854176      2.33e-03  
 1306   -2141.6013780870      2.46e-03  
 1307   -2141.6141782184      2.42e-03  
 1308   -2141.5983943017      2.21e-03  
 1309   -2141.6051034352      2.16e-03  
 1310   -2141.6278775931      1.93e-03  
 1311   -2141.6742356924      1.61e-03  
 1312   -2141.4989600088      2.75e-03  
 1313   -2141.6759121702      1.61e-03  
 1314   -2141.6717440030      1.78e-03  
 1315   -2141.4543583074      3.28e-03  
 1316   -2141.5405203672      2.82e-03  
 1317   -2141.5784773778      2.41e-03  
 1318   -2141.6658683359      1.83e-03  
 1319   -2141.3765818976      3.01e-03  
 1320   -2141.5386356591      2.52e-03  
 1321   -2141.5100034552      2.55e-03  
 1322   -2141.5409443008      2.48e-03  
 1323   -2141.6500859248      2.09e-03  
 1324   -2141.5756520489      2.48e-03  
 1325   -2141.4677516951      3.20e-03  
 1326   -2141.4787002689      3.13e-03  
 1327   -2141.4707985502      3.16e-03  
 1328   -2141.4776034601      3.15e-03  
 1329   -2141.5588419546      2.34e-03  
 1330   -2141.4904486462      2.56e-03  
 1331   -2141.5252599621      2.44e-03  
 1332   -2141.5018580799      2.50e-03  
 1333   -2141.4284249730      3.73e-03  
 1334   -2141.5282002310      2.71e-03  
 1335   -2140.6849083174      7.04e-03  
 1336   -2141.2249894377      3.79e-03  
 1337   -2141.5458534600      2.62e-03  
 1338   -2141.7041189321      1.21e-03  
 1339   -2141.3837223442      2.99e-03  
 1340   -2141.5362384400      2.73e-03  
 1341   -2141.5878817546      2.23e-03  
 1342   -2141.5448811681      2.34e-03  
 1343   -2141.5365094187      2.39e-03  
 1344   -2141.5539022998      2.68e-03  
 1345   -2141.5815013721      2.21e-03  
 1346   -2141.5305278802      2.39e-03  
 1347   -2141.5411310866      2.83e-03  
 1348   -2141.5484992051      2.62e-03  
 1349   -2141.5473834615      2.60e-03  
 1350   -2141.6190432093      2.21e-03  
 1351   -2141.6058168667      2.37e-03  
 1352   -2141.5669703295      2.45e-03  
 1353   -2141.5518119717      2.65e-03  
 1354   -2141.5433538369      2.86e-03  
 1355   -2141.4544009892      2.85e-03  
 1356   -2141.5519132804      2.58e-03  
 1357   -2141.5624297125      2.55e-03  
 1358   -2141.5484167968      2.63e-03  
 1359   -2141.6038728084      2.06e-03  
 1360   -2141.5495216530      2.33e-03  
 1361   -2141.6600976197      1.57e-03  
 1362   -2141.5873800982      2.17e-03  
 1363   -2141.5667861523      2.68e-03  
 1364   -2141.5371074899      2.40e-03  
 1365   -2141.5293762016      2.44e-03  
 1366   -2141.5906041245      2.22e-03  
 1367   -2141.6061418886      2.23e-03  
 1368   -2141.5671226841      2.33e-03  
 1369   -2141.5102600529      2.81e-03  
 1370   -2141.5203056369      2.91e-03  
 1371   -2141.6299145122      2.02e-03  
 1372   -2141.4917238234      2.91e-03  
 1373   -2141.5234167576      2.47e-03  
 1374   -2140.4156130700      4.92e-03  
 1375   -2141.5392939986      2.87e-03  
 1376   -2141.4884136926      2.51e-03  
 1377   -2141.6637714449      1.87e-03  
 1378   -2141.6330680265      2.22e-03  
 1379   -2141.6300018683      1.86e-03  
 1380   -2141.5630696222      2.81e-03  
 1381   -2141.5820667562      2.51e-03  
 1382   -2141.5894395582      2.23e-03  
 1383   -2141.5912501252      2.22e-03  
 1384   -2141.5782692708      2.56e-03  
 1385   -2141.5632984491      2.76e-03  
 1386   -2141.5794299989      2.57e-03  
 1387   -2141.5990942626      2.15e-03  
 1388   -2141.5897977667      2.25e-03  
 1389   -2141.5725713679      2.34e-03  
 1390   -2141.5826268544      2.50e-03  
 1391   -2141.6085609101      2.18e-03  
 1392   -2141.5209847786      2.45e-03  
 1393   -2141.5374496796      2.84e-03  
 1394   -2141.5503061694      2.35e-03  
 1395   -2141.1259203567      4.82e-03  
 1396   -2141.4134560831      3.53e-03  
 1397   -2141.3879358628      3.16e-03  
 1398   -2141.5002847617      3.06e-03  
 1399   -2141.5290844542      2.39e-03  
 1400   -2141.5794385732      2.13e-03  
 1401   -2141.5555854805      2.66e-03  
 1402   -2141.5435000427      2.42e-03  
 1403   -2141.5309117019      2.41e-03  
 1404   -2141.5322439817      2.97e-03  
 1405   -2141.5422713183      2.40e-03  
 1406   -2140.4286631231      4.91e-03  
 1407   -2141.5382011259      2.86e-03  
 1408   -2141.4668821081      2.58e-03  
 1409   -2141.6135999797      2.21e-03  
 1410   -2141.5222131687      2.85e-03  
 1411   -2141.5480444404      2.68e-03  
 1412   -2141.5966409213      2.16e-03  
 1413   -2141.5308231602      2.70e-03  
 1414   -2141.3704019109      3.71e-03  
 1415   -2141.6098238143      2.46e-03  
 1416   -2141.5283254812      2.64e-03  
 1417   -2141.5486792310      2.62e-03  
 1418   -2141.5699296334      2.22e-03  
 1419   -2141.5336125729      2.41e-03  
 1420   -2141.6367776834      2.28e-03  
 1421   -2141.5901087947      2.19e-03  
 1422   -2141.5632190467      2.47e-03  
 1423   -2141.6676581581      1.64e-03  
 1424   -2141.4318150323      2.91e-03  
 1425   -2141.4944126450      2.66e-03  
 1426   -2141.5002387191      2.58e-03  
 1427   -2141.6152345293      2.32e-03  
 1428   -2141.6373102092      2.05e-03  
 1429   -2141.6302539766      2.01e-03  
 1430   -2141.5775395672      2.45e-03  
 1431   -2141.3888482605      3.50e-03  
 1432   -2141.6535605798      2.05e-03  
 1433   -2141.5615093860      2.65e-03  
 1434   -2141.5012846352      2.44e-03  
 1435   -2141.5126060633      2.93e-03  
 1436   -2141.5744910286      2.80e-03  
 1437   -2141.6225762497      2.23e-03  
 1438   -2141.2677948484      3.29e-03  
 1439   -2141.5218517874      2.81e-03  
 1440   -2141.6727310079      1.78e-03  
 1441   -2141.5455482565      2.69e-03  
 1442   -2141.5727838217      2.64e-03  
 1443   -2141.6151251160      2.15e-03  
 1444   -2141.6630176573      1.98e-03  
 1445   -2141.6831156952      1.52e-03  
 1446   -2141.5986411015      2.39e-03  
 1447   -2141.5807868107      2.47e-03  
 1448   -2141.3682522753      2.93e-03  
 1449   -2141.4577550740      2.93e-03  
 1450   -2141.6056244250      2.21e-03  
 1451   -2141.5365738444      2.40e-03  
 1452   -2141.5593292152      2.33e-03  
 1453   -2141.5390541206      2.39e-03  
 1454   -2141.5319392465      2.42e-03  
 1455   -2141.5184401434      2.46e-03  
 1456   -2141.5137537296      2.46e-03  
 1457   -2141.5529892401      2.67e-03  
 1458   -2141.5318936237      2.42e-03  
 1459   -2141.5327573353      2.41e-03  
 1460   -2141.5077263158      2.47e-03  
 1461   -2141.4980399931      2.99e-03  
 1462   -2141.4743239980      3.13e-03  
 1463   -2141.3798501710      3.63e-03  
 1464   -2139.8736048936      7.45e-03  
 1465   -2141.3437568466      3.44e-03  
 1466   -2141.4328036930      3.27e-03  
 1467   -2141.5453046086      2.54e-03  
 1468   -2141.4372172543      2.82e-03  
 1469   -2141.5147922449      2.79e-03  
 1470   -2141.5283118100      2.65e-03  
 1471   -2141.5742021210      2.39e-03  
 1472   -2141.5792481684      2.21e-03  
 1473   -2140.3317286301      5.40e-03  
 1474   -2141.3149760781      3.05e-03  
 1475   -2141.5033679063      2.95e-03  
 1476   -2141.5822739607      2.18e-03  
 1477   -2141.5781868660      2.22e-03  
 1478   -2141.6625429611      1.51e-03  
 1479   -2141.6704889049      1.91e-03  
 1480   -2141.6244999538      1.90e-03  
 1481   -2141.5732190324      2.29e-03  
 1482   -2141.6023195564      2.11e-03  
 1483   -2141.6107351592      1.74e-03  
 1484   -2141.5488499849      2.66e-03  
 1485   -2141.5469302377      2.61e-03  
 1486   -2141.5744101564      2.57e-03  
 1487   -2141.4731351708      3.06e-03  
 1488   -2141.5345741456      2.71e-03  
 1489   -2141.5378281962      2.56e-03  
 1490   -2141.3005342297      3.15e-03  
 1491   -2141.4693098816      2.80e-03  
 1492   -2141.4864250319      2.75e-03  
 1493   -2141.4535225734      2.87e-03  
 1494   -2141.3755045128      2.94e-03  
 1495   -2141.4524238619      3.44e-03  
 1496   -2141.6057863626      2.51e-03  
 1497   -2141.6475299612      2.18e-03  
 1498   -2141.4541575398      3.23e-03  
 1499   -2141.4786750127      2.63e-03  
 1500   -2141.4706466275      3.14e-03  
 1501   -2141.5155035883      2.98e-03  
 1502   -2141.5108476705      3.00e-03  
 1503   -2141.5105353969      3.00e-03  
 1504   -2141.5127241394      2.99e-03  
 1505   -2141.5184199245      2.88e-03  
 1506   -2141.5088747582      3.00e-03  
 1507   -2141.3799590620      3.54e-03  
 1508   -2141.5269498460      2.68e-03  
 1509   -2141.5186415433      2.92e-03  
 1510   -2141.5185141396      2.94e-03  
 1511   -2141.4804929976      3.13e-03  
 1512   -2141.4844037355      3.02e-03  
 1513   -2140.2785431921      7.33e-03  
 1514   -2141.4790999323      3.42e-03  
 1515   -2126.0792595072      1.84e-02  
 1516   -2141.4871682827      3.02e-03  
 1517   -2141.4283773082      3.18e-03  
 1518   -2141.5697748000      2.53e-03  
 1519   -2141.5873370919      2.28e-03  
 1520   -2141.6130712549      1.97e-03  
 1521   -2141.6386262068      1.97e-03  
 1522   -2141.6501192074      1.85e-03  
 1523   -2141.6962077772      1.50e-03  
 1524   -2141.5897196617      2.31e-03  
 1525   -2141.4979480058      3.00e-03  
 1526   -2141.5101475876      2.98e-03  
 1527   -2141.6131634883      2.31e-03  
 1528   -2141.2817248726      3.16e-03  
 1529   -2141.4214641904      3.34e-03  
 1530   -2141.5691476890      2.72e-03  
 1531   -2141.4991639258      3.07e-03  
 1532   -2141.6268572605      2.10e-03  
 1533   -2141.6039110912      2.20e-03  
 1534   -2141.5953494817      2.27e-03  
 1535   -2141.5812030619      2.32e-03  
 1536   -2141.4142620867      2.90e-03  
 1537   -2141.5842914617      2.35e-03  
 1538   -2141.5653670208      2.33e-03  
 1539   -2141.5729755642      2.67e-03  
 1540   -2141.5699529397      2.72e-03  
 1541   -2141.5695350625      2.43e-03  
 1542   -2141.5198404812      2.92e-03  
 1543   -2141.5160303741      2.96e-03  
 1544   -2141.3407666559      3.14e-03  
 1545   -2141.4887390335      2.50e-03  
 1546   -2141.5534430705      2.70e-03  
 1547   -2141.6122999040      2.11e-03  
 1548   -2141.6528774679      1.84e-03  
 1549   -2141.4354190331      3.19e-03  
 1550   -2141.5121679490      2.85e-03  
 1551   -2141.4260902139      2.87e-03  
 1552   -2141.4199451076      2.88e-03  
 1553   -2141.4455255774      2.82e-03  
 1554   -2141.5656532160      2.74e-03  
 1555   -2141.5873336990      2.46e-03  
 1556   -2141.6098349001      2.28e-03  
 1557   -2141.5175114076      2.64e-03  
 1558   -2141.4695044397      3.01e-03  
 1559   -2141.4957114871      2.86e-03  
 1560   -2141.2380558334      3.60e-03  
 1561   -2141.6339244481      1.93e-03  
 1562   -2141.6146083988      2.28e-03  
 1563   -2141.3521977377      2.98e-03  
 1564   -2141.5798456110      2.32e-03  
 1565   -2141.6182691884      2.18e-03  
 1566   -2141.6180940962      2.25e-03  
 1567   -2141.5554281971      2.80e-03  
 1568   -2141.5397439398      2.94e-03  
 1569   -2141.5385060916      2.97e-03  
 1570   -2141.5377211265      2.98e-03  
 1571   -2141.4051050311      2.93e-03  
 1572   -2141.6030720972      2.54e-03  
 1573   -2141.5165524008      2.75e-03  
 1574   -2141.4331769272      2.91e-03  
 1575   -2141.3928042808      2.97e-03  
 1576   -2141.5060849808      2.76e-03  
 1577   -2141.5226942027      3.06e-03  
 1578   -2141.6403375230      2.42e-03  
 1579   -2141.2728936563      3.39e-03  
 1580   -2141.6161322161      2.58e-03  
 1581   -2141.5643025989      2.31e-03  
 1582   -2141.4755717730      3.03e-03  
 1583   -2141.5387010980      2.66e-03  
 1584   -2141.5140909411      2.72e-03  
 1585   -2141.6247819804      1.93e-03  
 1586   -2141.5612686687      2.68e-03  
 1587   -2141.6680100449      1.69e-03  
 1588   -2141.5855762112      2.23e-03  
 1589   -2141.5775635704      2.24e-03  
 1590   -2141.6115367867      2.35e-03  
 1591   -2141.5713391364      2.32e-03  
 1592   -2141.6015482020      2.15e-03  
 1593   -2141.6070750994      2.24e-03  
 1594   -2141.5195209854      2.86e-03  
 1595   -2141.3200429525      3.04e-03  
 1596   -2141.4866663661      2.45e-03  
 1597   -2141.4128074840      2.89e-03  
 1598   -2141.4791581485      2.95e-03  
 1599   -2141.5358370202      2.49e-03  
 1600   -2141.5428320373      2.38e-03  
 1601   -2141.5156234040      2.67e-03  
 1602   -2141.6241155312      1.86e-03  
 1603   -2141.5018504319      2.97e-03  
 1604   -2141.5363589788      2.74e-03  
 1605   -2141.5970860538      2.13e-03  
 1606   -2141.6025693440      2.10e-03  
 1607   -2141.5596247332      2.28e-03  
 1608   -2141.5778030156      2.21e-03  
 1609   -2141.5747932420      2.21e-03  
 1610   -2141.6101802202      2.17e-03  
 1611   -2137.9590209638      9.06e-03  
 1612   -2141.1960945263      3.80e-03  
 1613   -2141.3025860732      3.14e-03  
 1614   -2141.5825656446      2.21e-03  
 1615   -2141.6150039150      2.25e-03  
 1616   -2141.5964996918      2.22e-03  
 1617   -2141.6161727463      1.97e-03  
 1618   -2141.5706334643      2.21e-03  
 1619   -2141.5287552789      2.66e-03  
 1620   -2141.4485441058      3.21e-03  
 1621   -2141.4648399426      3.12e-03  
 1622   -2141.4801325970      2.99e-03  
 1623   -2141.4910578089      2.94e-03  
 1624   -2141.5152693158      2.65e-03  
[...]
 7944   -2141.5118887310      2.72e-03  
 7945   -2141.5554391145      2.57e-03  
 7946   -2141.6657165451      1.76e-03  
 7947   -2141.3806556165      2.96e-03  
 7948   -2141.6420693358      1.91e-03  
 7949   -2141.5665980670      2.63e-03  
 7950   -2141.4289577386      3.24e-03  
 7951   -2141.5858891184      2.22e-03  
 7952   -2141.5757436193      2.26e-03  
 7953   -2141.5288486690      2.86e-03  
 7954   -2141.5829294406      2.63e-03  
 7955   -2141.5331850394      2.43e-03  
 7956   -2141.5279401196      2.44e-03  
 7957   -2141.5320663259      2.42e-03  
 7958   -2141.5374376961      2.40e-03  
 7959   -2141.5454664144      2.38e-03  
 7960   -2141.6586140959      1.81e-03  
 7961   -2141.6116077781      2.08e-03  
 7962   -2141.6183225881      2.46e-03  
 7963   -2141.4924269442      2.82e-03  
 7964   -2141.5905314138      2.23e-03  
 7965   -2141.6284021332      2.00e-03  
 7966   -2140.3837893496      5.10e-03  
 7967   -2141.3310848019      3.01e-03  
 7968   -2141.6602014843      1.70e-03  
 7969   -2141.6075045695      2.04e-03  
 7970   -2141.4405557519      2.73e-03  
 7971   -2141.3649363375      3.00e-03  
 7972   -2141.3771737786      2.99e-03  
 7973   -2141.4278373041      2.89e-03  
 7974   -2141.5955191313      2.03e-03  
 7975   -2141.4371108203      3.31e-03  
 7976   -2141.4624470726      3.17e-03  
 7977   -2141.4295305992      3.31e-03  
 7978   -2141.6126775206      2.36e-03  
 7979   -2141.6044281326      2.27e-03  
 7980   -2141.5289582664      2.87e-03  
 7981   -2141.3889908323      2.95e-03  
 7982   -2141.4041129781      2.93e-03  
 7983   -2141.4357310912      2.88e-03  
 7984   -2141.4664641798      2.82e-03  
 7985   -2141.5770742349      2.87e-03  
 7986   -2141.5528977820      2.40e-03  
 7987   -2141.5369812237      2.63e-03  
 7988   -2141.5761360215      2.44e-03  
 7989   -2141.2715801294      3.36e-03  
 7990   -2141.5522105275      2.67e-03  
 7991   -2141.5395382908      2.78e-03  
 7992   -2141.5487927813      2.92e-03  
 7993   -2141.5750637332      2.67e-03  
 7994   -2141.5761260302      2.52e-03  
 7995   -2141.4833167204      3.02e-03  
 7996   -2141.5313340974      2.35e-03  
 7997   -2141.5975148317      2.12e-03  
 7998   -2141.6057919718      2.10e-03  
 7999   -2141.5784444325      2.18e-03  
 8000   -2141.6100300667      2.07e-03  
 8001   -2141.5643035542      2.49e-03  
 8002   -2141.4148647763      2.93e-03  
 8003   -2141.5289959662      2.65e-03  
 8004   -2141.5666387321      2.49e-03  
 8005   -2141.5363792745      2.32e-03  
 8006   -2140.3275594672      5.42e-03  
 8007   -2141.3009149119      3.11e-03  
 8008   -2141.4969231095      2.49e-03  
 8009   -2141.4852381046      2.48e-03  
 8010   -2141.4736157628      3.11e-03  
 8011   -2141.5098852368      3.00e-03  
 8012   -2141.5502594958      2.56e-03  
 8013   -2141.5305457825      2.87e-03  
 8014   -2141.5255633177      2.86e-03  
 8015   -2141.5360004939      2.80e-03  
 8016   -2141.5618669469      2.50e-03  
 8017   -2141.4415024382      3.19e-03  
 8018   -2141.4088647311      3.00e-03  
 8019   -2141.4496878584      3.12e-03  
 8020   -2141.4819002771      2.98e-03  
 8021   -2141.4662071630      3.05e-03  
 8022   -2141.4705124886      3.03e-03  
 8023   -2140.3593594034      5.28e-03  
 8024   -2141.2947458317      3.17e-03  
 8025   -2141.5432154678      2.71e-03  
 8026   -2141.4318863190      2.96e-03  
 8027   -2141.3938555809      2.99e-03  
 8028   -2141.5700421071      2.39e-03  
 8029   -2141.5972599670      2.36e-03  
 8030   -2141.6249357205      1.78e-03  
 8031   -2141.5426005264      2.62e-03  
 8032   -2141.4775343206      3.16e-03  
 8033   -2141.4178179734      2.93e-03  
 8034   -2141.4468619274      3.16e-03  
 8035   -2141.4446313368      3.16e-03  
 8036   -2141.4479829466      3.17e-03  
 8037   -2141.4769225841      3.02e-03  
 8038   -2141.5020128834      2.87e-03  
 8039   -2141.5238193240      2.74e-03  
 8040   -2140.3638912850      5.26e-03  
 8041   -2141.2895335677      3.21e-03  
 8042   -2141.4301799373      2.88e-03  
 8043   -2141.4545495128      2.86e-03  
 8044   -2141.4282072950      2.90e-03  
 8045   -2141.3912732156      2.93e-03  
 8046   -2140.4741952315      4.62e-03  
 8047   -2141.5820470612      2.55e-03  
 8048   -2141.5494899359      3.04e-03  
 8049   -2141.5599581363      2.82e-03  
 8050   -2141.4450464440      2.90e-03  
 8051   -2141.4406744616      2.89e-03  
 8052   -2141.4680453767      2.81e-03  
 8053   -2141.4110348335      2.95e-03  
 8054   -2141.6273445000      1.89e-03  
 8055   -2141.4705045160      3.10e-03  
 8056   -2141.6056415962      2.51e-03  
 8057   -2138.0290086677      9.51e-03  
 8058   -2141.1994028006      3.82e-03  
 8059   -2141.3387034359      3.18e-03  
 8060   -2141.6082902411      2.40e-03  
 8061   -2141.3246276143      3.03e-03  
 8062   -2140.4797015155      4.58e-03  
 8063   -2141.4893896705      3.01e-03  
 8064   -2141.6169154337      2.10e-03  
 8065   -2141.5684932280      2.25e-03  
 8066   -2141.6531325003      1.63e-03  
 8067   -2141.6470615727      1.64e-03  
 8068   -2141.5095605237      2.89e-03  
 8069   -2141.4895710175      2.97e-03  
 8070   -2141.3507729680      2.98e-03  
 8071   -2141.4229518761      3.30e-03  
 8072   -2141.4536608456      3.10e-03  
 8073   -2141.4633557337      3.03e-03  
 8074   -2141.4667144088      3.00e-03  
 8075   -2141.4639554050      3.07e-03  
 8076   -2141.4289339504      2.87e-03  
 8077   -2132.8563462061      1.29e-02  
 8078   -2141.1502411094      4.19e-03  
 8079   -2141.3114748877      3.14e-03  
 8080   -2141.5336802746      2.71e-03  
 8081   -2141.4654769715      2.87e-03  
 8082   -2141.5089884889      2.79e-03  
 8083   -2141.5079522698      3.15e-03  
 8084   -2141.5751266512      2.34e-03  
 8085   -2140.4636658301      4.93e-03  
 8086   -2141.4347158447      3.34e-03  
 8087   -2141.4960749603      3.09e-03  
 8088   -2141.5186891048      2.86e-03  
 8089   -2141.5072121887      2.93e-03  
 8090   -2141.5723851652      2.66e-03  
 8091   -2141.5389935676      2.47e-03  
 8092   -2141.5096116404      2.89e-03  
 8093   -2141.4414204837      3.31e-03  
 8094   -2141.4325956128      3.29e-03  
 8095   -2141.2662170507      3.30e-03  
 8096   -2141.6233790650      2.05e-03  
 8097   -2141.4459501816      2.90e-03  
 8098   -2141.5099631453      2.75e-03  
 8099   -2141.4899429426      2.81e-03  
 8100   -2141.5528374472      2.57e-03  
 8101   -2141.5594215747      2.33e-03  
 8102   -2141.5350476166      2.37e-03  
 8103   -2141.5542462625      2.59e-03  
 8104   -2141.5583722703      2.53e-03  
 8105   -2141.5585322050      2.54e-03  
 8106   -2141.5751937060      2.45e-03  
 8107   -2141.6045189684      2.18e-03  
 8108   -2141.6291279517      1.84e-03  
 8109   -2141.5571967376      2.40e-03  
 8110   -2141.6123218566      2.28e-03  
 8111   -2141.2694076441      3.28e-03  
 8112   -2141.5514533085      2.41e-03  
 8113   -2141.4418017109      2.94e-03  
 8114   -2141.5488921210      2.56e-03  
 8115   -2141.6267315600      1.98e-03  
 8116   -2141.6354125342      2.03e-03  
 8117   -2141.5194058708      2.55e-03  
 8118   -2141.6159455417      1.95e-03  
 8119   -2141.5587853248      2.69e-03  
 8120   -2141.5566847788      2.70e-03  
 8121   -2141.5804751618      2.54e-03  
 8122   -2141.6536130998      1.65e-03  
 8123   -2141.5597398880      2.67e-03  
 8124   -2141.5557888676      2.59e-03  
 8125   -2141.5562369432      2.61e-03  
 8126   -2141.4423443130      3.18e-03  
 8127   -2141.4488876418      3.15e-03  
 8128   -2141.2450724918      3.67e-03  
 8129   -2141.4029987512      3.45e-03  
 8130   -2141.3177635191      2.98e-03  
 8131   -2141.5600134897      2.78e-03  
 8132   -2141.5476066705      2.80e-03  
 8133   -2141.5267348093      2.74e-03  
 8134   -2141.4653205316      3.00e-03  
 8135   -2141.4646236875      2.99e-03  
 8136   -2141.4970813918      2.83e-03  
 8137   -2141.5339307086      3.01e-03  
 8138   -2141.3849625817      2.97e-03  
 8139   -2141.4000028739      2.95e-03  
 8140   -2141.5362554723      3.00e-03  
 8141   -2141.5093755985      2.65e-03  
 8142   -2141.5912939403      2.45e-03  
 8143   -2141.5160762922      2.98e-03  
 8144   -2141.5739287158      2.24e-03  
 8145   -2141.5411504626      2.88e-03  
 8146   -2134.1817314862      1.37e-02  
 8147   -2140.9958386657      5.14e-03  
 8148   -2141.2498881451      3.47e-03  
 8149   -2141.5314351832      2.34e-03  
 8150   -2141.4876190111      3.05e-03  
 8151   -2141.5491970407      2.28e-03  
 8152   -2141.4759019307      3.29e-03  
 8153   -2141.4883305490      3.00e-03  
 8154   -2141.5264338268      2.82e-03  
 8155   -2140.4806191223      4.82e-03  
 8156   -2141.5179359684      2.89e-03  
 8157   -2141.4912905392      2.42e-03  
 8158   -2141.5317579401      2.73e-03  
 8159   -2141.4889203833      2.95e-03  
 8160   -2141.4996861178      2.86e-03  
 8161   -2141.4772275722      2.38e-03  
 8162   -2141.5392037893      2.75e-03  
 8163   -2141.3135836952      3.09e-03  
 8164   -2141.6324879047      2.16e-03  
 8165   -2141.4626898396      2.86e-03  
 8166   -2141.4118725064      2.96e-03  
 8167   -2141.4478008898      2.91e-03  
 8168   -2141.4275389968      3.21e-03  
 8169   -2141.4460950677      3.12e-03  
 8170   -2141.4578088483      3.07e-03  
 8171   -2141.4303461686      2.96e-03  
 8172   -2141.5197816210      2.90e-03  
 8173   -2141.4860906545      2.92e-03  
 8174   -2141.4721819656      3.02e-03  
 8175   -2141.4901730752      2.76e-03  
 8176   -2141.4642374988      3.05e-03  
 8177   -2134.6941554710      1.12e-02  
 8178   -2141.3301248399      3.76e-03  
 8179   -2141.4520033833      2.71e-03  
 8180   -2141.4427889037      3.33e-03  
 8181   -2141.4576534925      3.19e-03  
 8182   -2141.4979600334      2.83e-03  
 8183   -2137.9919985689      9.00e-03  
 8184   -2141.2275173824      3.84e-03  
 8185   -2141.3749654528      3.59e-03  
 8186   -2141.3292862085      3.10e-03  
 8187   -2141.5121150000      2.94e-03  
 8188   -2141.3403964665      3.05e-03  
 8189   -2141.5927399248      2.19e-03  
 8190   -2141.4826063028      2.83e-03  
 8191   -2141.3431320882      3.03e-03  
 8192   -2141.6004577822      2.47e-03  
 8193   -2141.6262107931      2.05e-03  
 8194   -2141.5771704590      2.34e-03  
 8195   -2141.4513032082      2.46e-03  
 8196   -2141.5339354917      2.80e-03  
 8197   -2141.5509646396      2.51e-03  
 8198   -2141.4997761094      2.83e-03  
 8199   -2141.4811668253      2.91e-03  
 8200   -2141.4773236398      2.91e-03  
 8201   -2141.4966735525      2.65e-03  
 8202   -2141.4654309656      3.04e-03  
 8203   -2141.4053880034      2.90e-03  
 8204   -2141.6281488627      2.12e-03  
 8205   -2141.4903193735      2.78e-03  
 8206   -2141.4339084331      2.91e-03  
 8207   -2141.5119460502      2.99e-03  
 8208   -2141.4590652908      3.10e-03  
 8209   -2140.4025513928      5.01e-03  
 8210   -2141.3558710169      3.00e-03  
 8211   -2141.5055561824      2.62e-03  
 8212   -2141.5978635076      2.27e-03  
 8213   -2141.4829416992      3.09e-03  
 8214   -2141.4551462599      2.84e-03  
 8215   -2141.5216158649      2.85e-03  
 8216   -2141.6570274085      1.55e-03  
 8217   -2141.6383409844      1.95e-03  
 8218   -2141.5310457716      2.93e-03  
 8219   -2141.4946274660      3.09e-03  
 8220   -2141.5853649794      2.44e-03  
 8221   -2141.6787316144      1.73e-03  
 8222   -2141.6575393779      1.75e-03  
 8223   -2141.3600636077      3.03e-03  
 8224   -2141.3810022222      2.99e-03  
 8225   -2141.4479232191      2.88e-03  
 8226   -2141.4870682743      2.74e-03  
 8227   -2141.4777469706      3.20e-03  
 8228   -2141.5690644708      2.55e-03  
 8229   -2141.6710945992      1.61e-03  
 8230   -2141.6031452121      2.22e-03  
 8231   -2141.5507901625      2.54e-03  
 8232   -2141.5421361613      2.80e-03  
 8233   -2141.5816224345      2.58e-03  
 8234   -2141.5196990903      2.93e-03  
 8235   -2141.5833288690      2.37e-03  
 8236   -2141.4925832054      3.06e-03  
 8237   -2141.4662344091      3.17e-03  
 8238   -2141.4819545937      3.10e-03  
 8239   -2141.4972750427      3.05e-03  
 8240   -2141.4985113412      3.02e-03  
 8241   -2141.5901564534      2.39e-03  
 8242   -2141.5660977386      2.35e-03  
 8243   -2141.5973285949      2.25e-03  
 8244   -2141.5565194490      2.83e-03  
 8245   -2141.4517215366      2.58e-03  
 8246   -2141.5336470620      2.45e-03  
 8247   -2140.3860090625      5.29e-03  
 8248   -2141.3753434751      3.73e-03  
 8249   -2141.2853708535      3.27e-03  
 8250   -2141.4229947973      3.23e-03  
 8251   -2141.4687751081      2.94e-03  
 8252   -2141.5100561912      2.89e-03  
 8253   -2141.4883458005      2.93e-03  
 8254   -2141.4458422638      3.11e-03  
 8255   -2141.4465313049      3.10e-03  
 8256   -2141.4709895381      3.00e-03  
 8257   -2141.4502613555      3.11e-03  
 8258   -2141.4595409653      3.06e-03  
 8259   -2141.5203537687      3.08e-03  
 8260   -2141.4310883692      3.20e-03  
 8261   -2141.5135092409      3.01e-03  
 8262   -2141.5284935101      2.74e-03  
 8263   -2141.5689049348      2.40e-03  
 8264   -2141.5366845851      2.88e-03  
 8265   -2137.9542167646      9.17e-03  
 8266   -2141.1992285719      3.86e-03  
 8267   -2141.5567194892      2.67e-03  
 8268   -2141.5053070940      3.00e-03  
 8269   -2141.4955672172      2.62e-03  
 8270   -2141.6516686237      1.82e-03  
 8271   -2141.4934815490      2.75e-03  
 8272   -2141.4496263259      2.92e-03  
 8273   -2141.5140730466      2.41e-03  
 8274   -2141.5442502699      2.71e-03  
 8275   -2141.5341111160      2.64e-03  
 8276   -2141.5264171751      2.74e-03  
 8277   -2141.5343961744      2.61e-03  
 8278   -2141.5338936892      2.80e-03  
 8279   -2141.5080238152      2.91e-03  
 8280   -2141.5345408583      2.81e-03  
 8281   -2141.5220203864      2.88e-03  
 8282   -2141.5195018439      2.89e-03  
 8283   -2141.5240484987      2.81e-03  
 8284   -2141.5273381261      2.64e-03  
 8285   -2141.5337433422      2.68e-03  
 8286   -2141.5370810900      2.76e-03  
 8287   -2141.5807205692      2.20e-03  
 8288   -2141.5350258572      2.81e-03  
 8289   -2141.4937246423      2.67e-03  
 8290   -2141.4643754436      3.22e-03  
 8291   -2141.4719858774      2.47e-03  
 8292   -2141.4912979240      2.95e-03  
 8293   -2141.5509191195      2.59e-03  
 8294   -2141.5329643626      2.72e-03  
 8295   -2141.5980288399      2.24e-03  
 8296   -2141.4721876782      3.22e-03  
 8297   -2141.5266079312      2.86e-03  
 8298   -2141.5264132953      2.85e-03  
 8299   -2141.5253126703      2.86e-03  
 8300   -2141.5302423051      2.84e-03  
 8301   -2141.3949738318      3.45e-03  
 8302   -2141.5005799691      2.86e-03  
 8303   -2140.4134490662      5.08e-03  
 8304   -2141.2969871869      3.12e-03  
 8305   -2141.4473806761      3.14e-03  
 8306   -2141.5367265903      2.72e-03  
 8307   -2141.4735987417      2.49e-03  
 8308   -2141.5029200693      2.92e-03  
 8309   -2141.5826272775      2.56e-03  
 8310   -2141.4774004899      3.06e-03  
 8311   -2141.3350231816      3.05e-03  
 8312   -2141.4934040535      2.91e-03  
 8313   -2141.5125716312      2.77e-03  
 8314   -2141.5608999211      2.58e-03  
 8315   -2141.5493936728      2.96e-03  
 8316   -2141.5089667191      2.71e-03  
 8317   -2141.4893151259      2.76e-03  
 8318   -2141.4950344892      2.68e-03  
 8319   -2141.4816549069      2.77e-03  
 8320   -2140.2305035939      6.03e-03  
 8321   -2141.2614244340      3.40e-03  
 8322   -2141.4753488423      3.07e-03  
 8323   -2141.4681517675      2.43e-03  
 8324   -2141.4691567245      3.14e-03  
 8325   -2141.4888399270      2.96e-03  
 8326   -2141.5090338085      2.93e-03  
 8327   -2141.4585154111      3.07e-03  
 8328   -2141.5025510679      2.56e-03  
 8329   -2141.4499709997      3.16e-03  
 8330   -2141.4601261076      3.11e-03  
 8331   -2141.4575515468      3.01e-03  
 8332   -2141.5163463918      2.97e-03  
 8333   -2141.5965386710      2.15e-03  
 8334   -2141.4882991525      2.72e-03  
 8335   -2141.6135024740      2.16e-03  
 8336   -2141.5503567782      2.54e-03  
 8337   -2141.3704781272      3.11e-03  
 8338   -2141.5944690511      2.13e-03  
 8339   -2141.4783103170      2.50e-03  
 8340   -2141.5592469476      2.33e-03  
 8341   -2141.5714866010      2.28e-03  
 8342   -2141.4724893708      3.14e-03  
 8343   -2141.6447510513      1.96e-03  
 8344   -2141.5896190028      2.57e-03  
 8345   -2141.5940428199      2.21e-03  
 8346   -2141.5970333377      2.20e-03  
 8347   -2141.5634279124      2.34e-03  
 8348   -2141.5841803370      2.28e-03  
 8349   -2141.5636340846      2.53e-03  
 8350   -2141.5635786121      2.32e-03  
 8351   -2141.6791053331      1.79e-03  
 8352   -2141.6726965946      1.80e-03  
 8353   -2141.6342067580      2.04e-03  
 8354   -2141.6318278000      1.98e-03  
 8355   -2141.5201185249      2.44e-03  
 8356   -2141.6274794782      1.96e-03  
 8357   -2141.6313772563      2.28e-03  
 8358   -2141.5881465843      2.42e-03  
 8359   -2141.5875868450      2.51e-03  
 8360   -2141.4989034966      2.94e-03  
 8361   -2141.5063313774      2.91e-03  
 8362   -2141.5221321293      2.89e-03  
 8363   -2141.5339513410      2.84e-03  
 8364   -2141.5802602220      2.24e-03  
 8365   -2141.4733110389      2.77e-03  
 8366   -2141.5505205319      2.51e-03  
 8367   -2141.5316115675      2.81e-03  
 8368   -2140.7010887931      5.57e-03  
 8369   -2141.3129100699      3.02e-03  
 8370   -2141.4745791057      2.62e-03  
 8371   -2141.5362420627      2.50e-03  
 8372   -2141.5661773742      2.42e-03  
 8373   -2141.5017094118      2.54e-03  
 8374   -2141.5061407131      2.53e-03  
 8375   -2141.4967056229      2.53e-03  
 8376   -2141.5011062163      2.52e-03  
 8377   -2141.4952970552      2.53e-03  
 8378   -2141.5671407205      2.31e-03  
 8379   -2141.5831386839      2.46e-03  
 8380   -2141.5932889350      2.20e-03  
 8381   -2141.4630454357      2.94e-03  
 8382   -2141.4268281205      2.92e-03  
 8383   -2141.4127896035      3.40e-03  
 8384   -2141.4421499869      2.90e-03  
 8385   -2134.6647068120      1.24e-02  
 8386   -2141.0972920525      4.51e-03  
 8387   -2141.2711093342      3.35e-03  
 8388   -2141.5044342886      2.86e-03  
 8389   -2141.4599740080      3.07e-03  
 8390   -2141.5080685600      2.43e-03  
 8391   -2141.5168714720      3.02e-03  
 8392   -2141.5690820158      2.29e-03  
 8393   -2141.5726477249      2.47e-03  
 8394   -2141.5590657019      2.67e-03  
 8395   -2141.5777044042      2.41e-03  
 8396   -2141.5619953344      2.62e-03  
 8397   -2141.6032085589      2.08e-03  
 8398   -2141.5589375498      2.66e-03  
 8399   -2141.6277937129      1.90e-03  
 8400   -2141.4101921502      3.07e-03  
 8401   -2141.5055299033      2.78e-03  
 8402   -2141.6235338954      2.15e-03  
 8403   -2140.3760073370      5.15e-03  
 8404   -2141.3249299925      3.02e-03  
 8405   -2141.4387890297      3.29e-03  
 8406   -2141.6612441194      1.79e-03  
 8407   -2141.6038204826      2.25e-03  
 8408   -2141.5122171749      3.00e-03  
 8409   -2141.5629503760      2.77e-03  
 8410   -2141.5753520697      2.72e-03  
 8411   -2141.6104016291      2.01e-03  
 8412   -2141.5870799597      2.17e-03  
 8413   -2141.5641779469      2.26e-03  
 8414   -2141.5887966625      2.43e-03  
 8415   -2141.4916758249      3.08e-03  
 8416   -2141.5660416111      2.79e-03  
 8417   -2141.5567519607      2.89e-03  
 8418   -2141.5288191696      3.02e-03  
 8419   -2141.6162965452      2.04e-03  
 8420   -2139.9882354628      6.73e-03  
 8421   -2141.2667024615      3.37e-03  
 8422   -2141.5842691027      2.25e-03  
 8423   -2141.3504120144      3.00e-03  
 8424   -2141.5104799343      3.07e-03  
 8425   -2141.5651043676      2.55e-03  
 8426   -2141.5314652946      2.74e-03  
 8427   -2141.4972410925      3.06e-03  
 8428   -2141.4805660326      2.41e-03  
 8429   -2141.6030700350      2.38e-03  
 8430   -2141.5421208883      2.68e-03  
