
Running Job 1 of 1 FeHis1_opt.in
qchem FeHis1_opt.in_6412.0 /scr/c295_lal/136948/qchem6412/ 1
/usr/software/qchem_511/exe/qcprog.exe_s FeHis1_opt.in_6412.0 /scr/c295_lal/136948/qchem6412/
Check license passed

                  Welcome to Q-Chem
     A Quantum Leap Into The Future Of Chemistry


 Q-Chem 5.1, Q-Chem, Inc., Pleasanton, CA (2018)

 Yihan Shao,  Zhengting Gan,  E. Epifanovsky,  A. T. B. Gilbert,  M. Wormit,  
 J. Kussmann,  A. W. Lange,  A. Behn,  Jia Deng,  Xintian Feng,  D. Ghosh,  
 M. Goldey,  P. R. Horn,  L. D. Jacobson,  I. Kaliman,  T. Kus,  A. Landau,  
 Jie Liu,  E. I. Proynov,  R. M. Richard,  R. P. Steele,  E. J. Sundstrom,  
 H. L. Woodcock III,  P. M. Zimmerman,  D. Zuev,  B. Albrecht,  E. Alguire,  
 S. A. Baeppler,  D. Barton,  Z. Benda,  Y. A. Bernard,  E. J. Berquist,  
 K. B. Bravaya,  H. Burton,  D. Casanova,  Chun-Min Chang,  Yunqing Chen,  
 A. Chien,  K. D. Closser,  M. P. Coons,  S. Coriani,  S. Dasgupta,  
 A. L. Dempwolff,  M. Diedenhofen,  Hainam Do,  R. G. Edgar,  Po-Tung Fang,  
 S. Faraji,  S. Fatehi,  Qingguo Feng,  K. D. Fenk,  J. Fosso-Tande,  
 Qinghui Ge,  A. Ghysels,  G. Gidofalvi,  J. Gomes,  J. Gonthier,  A. Gunina,  
 D. Hait,  M. W. D. Hanson-Heine,  P. H. P. Harbach,  A. W. Hauser,  
 J. E. Herr,  E. G. Hohenstein,  Z. C. Holden,  Kerwin Hui,  B. C. Huynh,  
 T.-C. Jagau,  Hyunjun Ji,  B. Kaduk,  K. Khistyaev,  Jaehoon Kim,  
 P. Klunzinger,  K. Koh,  D. Kosenkov,  L. Koulias,  T. Kowalczyk,  
 C. M. Krauter,  A. Kunitsa,  Ka Un Lao,  A. Laurent,  K. V. Lawler,  
 Joonho Lee,  D. Lefrancois,  S. Lehtola,  D. S. Levine,  Yi-Pei Li,  
 You-Sheng Lin,  Fenglai Liu,  E. Livshits,  A. Luenser,  P. Manohar,  
 E. Mansoor,  S. F. Manzer,  Shan-Ping Mao,  Yuezhi Mao,  N. Mardirossian,  
 A. V. Marenich,  T. Markovich,  L. A. Martinez-Martinez,  S. A. Maurer,  
 N. J. Mayhall,  S. C. McKenzie,  J.-M. Mewes,  A. F. Morrison,  
 J. W. Mullinax,  K. Nanda,  T. S. Nguyen-Beck,  R. Olivares-Amaya,  
 J. A. Parkhill,  T. M. Perrine,  F. Plasser,  P. Pokhilko,  S. Prager,  
 A. Prociuk,  E. Ramos,  D. R. Rehn,  F. Rob,  M. Schneider,  N. Sergueev,  
 S. M. Sharada,  S. Sharma,  D. W. Small,  T. Stauch,  T. Stein,  
 Yu-Chuan Su,  A. J. W. Thom,  A. Tkatchenko,  T. Tsuchimochi,  N. M. Tubman,  
 L. Vogt,  M. L. Vidal,  O. Vydrov,  M. A. Watson,  J. Wenzel,  
 M. de Wergifosse,  T. A. Wesolowski,  A. White,  J. Witte,  A. Yamada,  
 Jun Yang,  K. Yao,  S. Yeganeh,  S. R. Yost,  Zhi-Qiang You,  A. Zech,  
 Igor Ying Zhang,  Xing Zhang,  Yan Zhao,  Ying Zhu,  B. R. Brooks,  
 G. K. L. Chan,  C. J. Cramer,  M. S. Gordon,  W. J. Hehre,  A. Klamt,  
 M. W. Schmidt,  C. D. Sherrill,  D. G. Truhlar,  A. Aspuru-Guzik,  R. Baer,  
 A. T. Bell,  N. A. Besley,  Jeng-Da Chai,  A. E. DePrince, III,  
 R. A. DiStasio Jr.,  A. Dreuw,  B. D. Dunietz,  T. R. Furlani,  
 Chao-Ping Hsu,  Yousung Jung,  Jing Kong,  D. S. Lambrecht,  WanZhen Liang,  
 C. Ochsenfeld,  V. A. Rassolov,  L. V. Slipchenko,  J. E. Subotnik,  
 T. Van Voorhis,  J. M. Herbert,  A. I. Krylov,  P. M. W. Gill,  M. Head-Gordon

 Contributors to earlier versions of Q-Chem not listed above: 
 R. D. Adamson,  B. Austin,  J. Baker,  G. J. O. Beran,  K. Brandhorst,  
 S. T. Brown,  E. F. C. Byrd,  A. K. Chakraborty,  C.-L. Cheng,  
 Siu Hung Chien,  D. M. Chipman,  D. L. Crittenden,  H. Dachsel,  
 R. J. Doerksen,  A. D. Dutoi,  L. Fusti-Molnar,  W. A. Goddard III,  
 A. Golubeva-Zadorozhnaya,  S. R. Gwaltney,  G. Hawkins,  A. Heyden,  
 S. Hirata,  G. Kedziora,  F. J. Keil,  C. Kelley,  Jihan Kim,  R. A. King,  
 R. Z. Khaliullin,  P. P. Korambath,  W. Kurlancheek,  A. M. Lee,  M. S. Lee,  
 S. V. Levchenko,  Ching Yeh Lin,  D. Liotard,  R. C. Lochan,  I. Lotan,  
 P. E. Maslen,  N. Nair,  D. P. O'Neill,  D. Neuhauser,  E. Neuscamman,  
 C. M. Oana,  R. Olson,  B. Peters,  R. Peverati,  P. A. Pieniazek,  
 Y. M. Rhee,  J. Ritchie,  M. A. Rohrdanz,  E. Rosta,  N. J. Russ,  
 H. F. Schaefer III,  N. E. Schultz,  N. Shenvi,  A. C. Simmonett,  A. Sodt,  
 D. Stuck,  K. S. Thanthiriwatte,  V. Vanovschi,  Tao Wang,  A. Warshel,  
 C. F. Williams,  Q. Wu,  X. Xu,  W. Zhang

 Please cite Q-Chem as follows:
 Y. Shao et al., Mol. Phys. 113, 184-215 (2015)
 DOI: 10.1080/00268976.2014.952696

 Q-Chem 5.1.1 for Intel X86 EM64T Linux

 Parts of Q-Chem use Armadillo 8.300.2 (Tropical Shenanigans).
 http://arma.sourceforge.net/

 Q-Chem begins on Tue Oct 30 19:01:51 2018  

Host: cub-0-26.local
0

     Scratch files written to /scr/c295_lal/136948/qchem6412//
 Aug318 |scratch|qcdevops|jenkins|workspace|build_RNUM -1
Processing $rem in /usr/software/qchem_511/config/preferences.
 MEM_TOTAL  2000 
Input Ideriv = 2
Curr. Ideriv = -1
Max.  Ideriv = 2

Checking the input file for inconsistencies... 	...done.

--------------------------------------------------------------
User input:
--------------------------------------------------------------
$molecule
3 4
Fe        -2.01226       11.82148        8.40845
H         -1.36181        7.50756        7.52958
C         -0.43836        7.89911        7.93473
H          0.17865        9.26687        6.40863
N          0.34070        8.81100        7.33317
C          0.14393        7.56460        9.13674
C          1.37475        9.01644        8.16827
H         -0.23785        6.85601        9.85936
N          1.28451        8.26668        9.28535
H          2.18615        9.70351        7.96782
$end

$rem
BASIS = 6-31G
METHOD  = BLYP
JOBTYPE = OPT
MAX_SCF_CYCLES = 1000
$end
--------------------------------------------------------------
 ----------------------------------------------------------------
             Standard Nuclear Orientation (Angstroms)
    I     Atom           X                Y                Z
 ----------------------------------------------------------------
    1      Fe      2.5028211962     0.0273311176     0.1141332669
    2      H      -1.3494015802     1.7575076149    -1.2902428987
    3      C      -1.5838829910     0.8940350945    -0.6822531768
    4      H      -0.7970292442    -0.7117013706    -1.8582300275
    5      N      -1.2856714354    -0.3750288698    -0.9998989101
    6      C      -2.2277239019     0.8907906558     0.5348109051
    7      C      -1.7470640671    -1.1245472232     0.0170554072
    8      H      -2.5971747349     1.7567188641     1.0674551025
    9      N      -2.3310721710    -0.3782119974     0.9762578399
   10      H      -1.6605145355    -2.2021192582     0.0613615612
 ----------------------------------------------------------------
 Molecular Point Group                 C1    NOp =  1
 Largest Abelian Subgroup              C1    NOp =  1
 Nuclear Repulsion Energy =   275.0010932803 hartrees
 There are       31 alpha and       28 beta electrons
 Requested basis set is 6-31G
 There are 30 shells and 82 basis functions

 Total QAlloc Memory Limit   2000 MB
 Mega-Array Size       188 MB
 MEM_STATIC part       192 MB
 A cutoff of  1.0D-11 yielded    403 shell pairs
 There are      3089 function pairs
 
 -------------------------------------------------------
 OpenMP Integral Computing Module                       
 Release: version 1.0, May 2013, Q-Chem Inc. Pittsburgh 
 -------------------------------------------------------
 Integral Job Info:
 Integral job number is                      11
 Integral operator is                         1
 short-range coefficients                     0
 long-range coefficients              100000000
 Omega coefficients                           0
 if combine SR and LR in K                    0
 Integral screening is                        0
 Integral computing path is                   2
 max size of driver memory is            800000
 size of driver memory is                593474
 size of scratch memory is             15267112
 max col of scratch BK array               1296
 max len of scratch array in speh3          155
 max len of scratch index in speh4           18
 max int batch size is                      520
 min int batch size is                       52
 fixed nKL is                                52
 max L of basis functions is                  2
 order of int derivative is                   0
 number of shells is                         30
 number of basis is                          82
 number of cartesian basis is                82
 number of contracted shell pairs           403
 number of primitive shell pairs           2281
 maxK2 (contraction) of shell pair           36
 max number of K2 of shell pair               1
 max number of CS2 of shell pair             60
 max number of PS2 of shell pair            360
 mem total for path MDJ                  513264
 -------------------------------------------------------
 Smallest overlap matrix eigenvalue = 1.76E-03

 Scale SEOQF with 1.000000e-01/1.000000e-01/1.000000e-01

 Standard Electronic Orientation quadrupole field applied
 Nucleus-field energy     =     0.0000000098 hartrees
 Guess from superposition of atomic densities
 Warning:  Energy on first SCF cycle will be non-variational
 SAD guess density has 61.991007 electrons

 -----------------------------------------------------------------------
  General SCF calculation program by
  Eric Jon Sundstrom, Paul Horn, Yuezhi Mao, Dmitri Zuev, Alec White,
  David Stuck, Shaama M.S., Shane Yost, Joonho Lee, David Small,
  Daniel Levine, Susi Lehtola, Hugh Burton, Evgeny Epifanovsky
 -----------------------------------------------------------------------
 Exchange:  B88      Correlation:  LYP
 Using SG-1 standard quadrature grid
 using 4 threads for integral computing
 -------------------------------------------------------
 OpenMP Integral computing Module                
 Release: version 1.0, May 2013, Q-Chem Inc. Pittsburgh 
 -------------------------------------------------------
 -------------------------------------------------------
 OpenMP BLAS3 based DFT computing Module                
 Release: version 1.0, May 2013, Q-Chem Inc. Pittsburgh 
 -------------------------------------------------------
 A unrestricted SCF calculation will be
 performed using DIIS
 SCF converges when DIIS error is below 1.0e-08
 ---------------------------------------
  Cycle       Energy         DIIS error
 ---------------------------------------
    1   -1490.4441488511      1.35e-01  
    2   -1487.1448642260      1.09e-02  
    3   -1442.7816152853      7.43e-02  
    4   -1477.1234023720      4.99e-02  
    5   -1474.5766936674      5.07e-02  
    6   -1474.6691494974      5.03e-02  
    7   -1474.7108860884      5.01e-02  
    8   -1474.5380940301      5.04e-02  
    9   -1474.6570366094      5.00e-02  
   10   -1474.6489044335      4.99e-02  
   11   -1474.5986401468      5.00e-02  
   12   -1474.5970907957      5.00e-02  
   13   -1474.7170702143      4.97e-02  
   14   -1474.7151861882      4.97e-02  
   15   -1474.7776020272      4.95e-02  
   16   -1475.1473903873      4.90e-02  
   17   -1475.1424974338      4.90e-02  
   18   -1381.6733708057      7.74e-02  
   19   -1477.3535692494      5.65e-02  
   20   -1478.9306756674      5.26e-02  
   21   -1460.2010949181      6.75e-02  
   22   -1444.7416785452      7.49e-02  
   23   -1445.2336343371      7.57e-02  
   24   -1444.2504627078      7.44e-02  
   25   -1444.0232797642      7.46e-02  
   26   -1443.7765571196      7.45e-02  
   27   -1443.6658343598      7.48e-02  
   28   -1443.6059848284      7.49e-02  
   29   -1442.1978566209      7.55e-02  
   30   -1441.8511320223      7.59e-02  
   31   -1441.6746116033      7.61e-02  
   32   -1441.6265749613      7.60e-02  
   33   -1415.4768180394      8.68e-02  
   34   -1389.2559879688      8.28e-02  
   35   -1414.0884405090      8.81e-02  
   36   -1469.4691791766      6.80e-02  
   37   -1456.4165431232      7.22e-02  
   38   -1462.3569117618      6.73e-02  
   39   -1452.9026205645      7.35e-02  
   40   -1452.9463198247      7.38e-02  
   41   -1453.6275774417      7.24e-02  
   42   -1453.8071980960      7.09e-02  
   43   -1453.6045489819      7.12e-02  
   44   -1453.6247625876      7.14e-02  
   45   -1448.5473674307      7.52e-02  
   46   -1448.3834023414      7.36e-02  
   47   -1453.0881002449      7.18e-02  
   48   -1453.2695627277      7.17e-02  
   49   -1453.3809611703      7.14e-02  
   50   -1342.3868382208      7.36e-02  
   51   -1342.7935613738      7.83e-02  
   52   -1474.4973250690      6.34e-02  
   53   -1473.7604650685      6.13e-02  
   54   -1471.4128966468      6.35e-02  
   55   -1471.6672380994      6.31e-02  
   56   -1471.8314752081      6.27e-02  
   57   -1470.9184519302      6.36e-02  
   58   -1471.4809099102      6.26e-02  
   59   -1471.0304961272      6.41e-02  
   60   -1471.2869323942      6.37e-02  
   61   -1474.4493519971      6.08e-02  
   62   -1474.3768092357      6.10e-02  
   63   -1473.8532165925      6.20e-02  
   64   -1473.8095316244      6.20e-02  
   65   -1475.8597941943      6.15e-02  
   66   -1335.8943098655      7.46e-02  
   67   -1342.5192389816      7.88e-02  
   68   -1473.0981025109      6.37e-02  
   69   -1468.2335234175      6.86e-02  
   70   -1468.5768689074      6.77e-02  
   71   -1468.4284957560      6.82e-02  
   72   -1464.4568325877      7.03e-02  
   73   -1464.1155934490      7.14e-02  
   74   -1467.6320359549      6.90e-02  
   75   -1468.1991125331      6.79e-02  
   76   -1468.1391701029      6.78e-02  
   77   -1470.3057601719      6.48e-02  
   78   -1473.1889025523      6.32e-02  
   79   -1472.9493897741      6.33e-02  
   80   -1473.4664260466      6.30e-02  
   81   -1473.4189342992      6.34e-02  
   82   -1333.8598762374      7.33e-02  
   83   -1302.0555773062      6.26e-02  
   84   -1385.2404158608      7.24e-02  
   85   -1383.4169296209      7.47e-02  
   86   -1383.3000935830      7.50e-02  
   87   -1400.5985027816      7.21e-02  
   88   -1453.0518040933      5.50e-02  
   89   -1463.8082458378      4.71e-02  
   90   -1465.1653081885      4.28e-02  
   91   -1464.9904173453      4.12e-02  
   92   -1450.6738761269      7.10e-02  
   93   -1453.3286053143      7.06e-02  
   94   -1461.5029145187      6.56e-02  
   95   -1461.4814875178      6.56e-02  
   96   -1460.8919244488      6.51e-02  
   97   -1450.1370211077      7.21e-02  
   98   -1471.3838882615      6.38e-02  
   99   -1328.1665912713      7.04e-02  
  100   -1443.5881115273      7.38e-02  
  101   -1443.4629466125      7.39e-02  
  102   -1442.6075971513      7.48e-02  
  103   -1437.0660187886      8.25e-02  
  104   -1433.3741865174      8.04e-02  
  105   -1468.4601904241      6.07e-02  
  106   -1472.9324674842      5.79e-02  
  107   -1335.5429262536      7.38e-02  
  108   -1472.7475403600      3.03e-02  
  109   -1450.1411579189      7.37e-02  
  110   -1450.9663254619      7.12e-02  
  111   -1451.1545743004      7.09e-02  
  112   -1456.1376423054      7.14e-02  
  113   -1457.5594768021      7.32e-02  
  114   -1458.1594754424      6.91e-02  
  115   -1395.9771108559      8.30e-02  
  116   -1396.0067760813      8.34e-02  
  117   -1395.9391733933      8.37e-02  
  118   -1406.1964542376      8.39e-02  
  119   -1405.7633597668      8.58e-02  
  120   -1395.4747849224      8.33e-02  
  121   -1421.7007826409      9.20e-02  
  122   -1429.7107076838      8.29e-02  
  123   -1429.2048376371      8.35e-02  
  124   -1334.0436381157      7.19e-02  
  125   -1430.3443881576      8.63e-02  
  126   -1427.2261158540      8.98e-02  
  127   -1426.2102549147      8.79e-02  
  128   -1425.8857214402      8.79e-02  
  129   -1425.3075788373      8.71e-02  
  130   -1380.3484036360      8.81e-02  
  131   -1430.8643643788      8.32e-02  
  132   -1431.7523640947      8.29e-02  
  133   -1431.9166427007      8.30e-02  
  134   -1431.9318516092      8.30e-02  
  135   -1431.9287014022      8.30e-02  
  136   -1426.0298664318      8.78e-02  
  137   -1424.8134801267      8.67e-02  
  138   -1410.4734091316      9.00e-02  
  139   -1419.5047289838      9.24e-02  
  140   -1324.3260334740      7.44e-02  
  141   -1421.8356349093      8.74e-02  
  142   -1422.2489330514      8.84e-02  
  143   -1423.2704346122      9.04e-02  
  144   -1423.4646448891      9.09e-02  
  145   -1423.2795244049      9.02e-02  
  146   -1334.7908508339      7.16e-02  
  147   -1471.7294297138      3.09e-02  
  148   -1429.4997563600      8.08e-02  
  149   -1431.7214669106      8.01e-02  
  150   -1431.7091607478      8.01e-02  
  151   -1431.6981403435      8.02e-02  
  152   -1434.2025184243      8.47e-02  
  153   -1436.9781855246      7.87e-02  
  154   -1437.4111156395      7.84e-02  
  155   -1437.5280682198      7.84e-02  
  156   -1464.1583283244      7.18e-02  
  157   -1458.3725563006      6.90e-02  
  158   -1457.3658200814      6.98e-02  
  159   -1457.4895473745      6.98e-02  
  160   -1457.3474111498      6.98e-02  
  161   -1452.3197692070      7.19e-02  
  162   -1373.1295620828      8.03e-02  
  163   -1334.3423919584      7.35e-02  
  164   -1436.5455388988      8.38e-02  
  165   -1436.3685286886      8.35e-02  
  166   -1436.3149603116      8.35e-02  
  167   -1436.0751745465      8.34e-02  
  168   -1435.9244375859      8.32e-02  
  169   -1435.8654230600      8.32e-02  
  170   -1435.7929387131      8.32e-02  
  171   -1435.6154666562      8.34e-02  
  172   -1435.9394476662      8.39e-02  
  173   -1442.0962455177      8.42e-02  
  174   -1441.3970602803      8.32e-02  
  175   -1441.3965635422      8.32e-02  
  176   -1441.4787197952      8.33e-02  
  177   -1433.4839801620      8.18e-02  
  178   -1308.5122233842      6.02e-02  
  179   -1325.0257816104      7.35e-02  
  180   -1389.5392425340      6.62e-02  
  181   -1463.4467465740      4.17e-02  
  182   -1464.1184957412      4.35e-02  
  183   -1466.6272333215      3.57e-02  
  184   -1485.7248326765      2.86e-02  
  185   -1469.6649066337      3.94e-02  
  186   -1474.9963362329      3.54e-02  
  187   -1475.6595149971      3.58e-02  
  188   -1475.9697811523      3.60e-02  
  189   -1479.6956780131      3.08e-02  
  190   -1479.8585768349      3.00e-02  
  191   -1479.9608598946      2.95e-02  
  192   -1480.1119957719      2.99e-02  
  193   -1487.0352431814      1.39e-02  
  194   -1487.1678618544      1.10e-02  
  195   -1487.0822544803      1.23e-02  
  196   -1487.1588401195      1.07e-02  
  197   -1487.8141722896      1.04e-02  
  198   -1487.1927915781      1.09e-02  
  199   -1488.1234308822      3.60e-03  
  200   -1487.1013411237      1.17e-02  
  201   -1487.1160547508      1.15e-02  
  202   -1487.1151245321      1.16e-02  
  203   -1487.1279231177      1.16e-02  
  204   -1487.1216017570      1.16e-02  
  205   -1488.0486326856      5.62e-03  
  206   -1488.1449568038      3.19e-03  
  207   -1487.5376247792      1.06e-02  
  208   -1488.0463764163      5.56e-03  
  209   -1487.2454278368      1.19e-02  
  210   -1487.0825008858      1.18e-02  
  211   -1485.5762922697      1.87e-02  
  212   -1485.5953331662      1.87e-02  
  213   -1485.5728260750      1.89e-02  
  214   -1485.5425781996      1.93e-02  
  215   -1485.5300740103      1.94e-02  
  216   -1485.5483138464      1.92e-02  
  217   -1485.5546188253      1.92e-02  
  218   -1485.5293505616      1.94e-02  
  219   -1485.5466587045      1.92e-02  
  220   -1485.5418977673      1.93e-02  
  221   -1485.5907367592      1.89e-02  
  222   -1486.4996603560      1.89e-02  
  223   -1487.4695087649      8.90e-03  
  224   -1475.0053281529      3.36e-02  
  225   -1485.0748429916      1.72e-02  
  226   -1487.0977440037      1.01e-02  
  227   -1487.1692064135      9.51e-03  
  228   -1488.0747375568      4.63e-03  
  229   -1487.4753205239      8.96e-03  
  230   -1487.4732088545      9.07e-03  
  231   -1487.6293117459      8.89e-03  
  232   -1487.9382827778      7.66e-03  
  233   -1487.5131900805      8.52e-03  
  234   -1487.9565339093      7.03e-03  
  235   -1488.1063883830      3.88e-03  
  236   -1488.1119658650      4.22e-03  
  237   -1488.1223030418      3.89e-03  
  238   -1487.9714311090      6.73e-03  
  239   -1488.0957521729      4.32e-03  
  240   -1488.0930597804      4.43e-03  
  241   -1488.0972234819      4.28e-03  
  242   -1488.0996106755      4.20e-03  
  243   -1488.0928028087      4.37e-03  
  244   -1488.0953507766      4.29e-03  
  245   -1488.0912679614      4.41e-03  
  246   -1488.1034895101      4.13e-03  
  247   -1488.1040824525      4.11e-03  
  248   -1487.5412444744      8.33e-03  
  249   -1487.6239850797      8.34e-03  
  250   -1487.5062818079      8.44e-03  
  251   -1487.4931800108      8.59e-03  
  252   -1487.4906240374      8.61e-03  
  253   -1488.1030303814      4.65e-03  
  254   -1487.4847451021      8.83e-03  
  255   -1487.4800239535      8.91e-03  
  256   -1487.4830460913      8.88e-03  
  257   -1487.4901564914      8.77e-03  
  258   -1487.4861231008      8.78e-03  
  259   -1487.4956998061      8.67e-03  
  260   -1487.4847403136      8.79e-03  
  261   -1487.4874335064      8.68e-03  
  262   -1487.4863410562      8.70e-03  
  263   -1488.0088555595      6.60e-03  
  264   -1488.1382093378      3.01e-03  
  265   -1488.1255544780      3.60e-03  
  266   -1487.6110270408      8.79e-03  
  267   -1487.4783657834      8.89e-03  
  268   -1485.6053491195      1.87e-02  
  269   -1487.5108278284      8.85e-03  
  270   -1487.5069978362      8.85e-03  
  271   -1487.4895515612      8.86e-03  
  272   -1487.5613268633      8.88e-03  
  273   -1487.4971032627      8.82e-03  
  274   -1487.5166878123      8.82e-03  
  275   -1487.9536573930      6.78e-03  
  276   -1487.4813314950      8.60e-03  
  277   -1487.4910535376      8.45e-03  
  278   -1487.7475004046      8.08e-03  
  279   -1487.7408830121      8.07e-03  
  280   -1488.0671870862      5.26e-03  
  281   -1488.0869373787      4.79e-03  
  282   -1488.0974770853      4.45e-03  
  283   -1488.1093623910      4.45e-03  
  284   -1488.1234911896      4.02e-03  
  285   -1488.1377281823      3.27e-03  
  286   -1488.0128272548      5.86e-03  
  287   -1488.0229632660      5.64e-03  
  288   -1488.0140544978      5.78e-03  
  289   -1488.0014285823      5.95e-03  
  290   -1488.0034216531      5.92e-03  
  291   -1487.9890509230      6.14e-03  
  292   -1487.9941741742      6.09e-03  
  293   -1487.9754342343      6.10e-03  
  294   -1487.9363262528      6.39e-03  
  295   -1487.9419362684      6.36e-03  
  296   -1487.9760660876      6.02e-03  
  297   -1488.0178249666      5.69e-03  
  298   -1488.0160182939      5.74e-03  
  299   -1488.0110625756      5.82e-03  
  300   -1488.0014019466      6.01e-03  
  301   -1481.5646043688      2.96e-02  
  302   -1487.0370671577      1.25e-02  
  303   -1488.0632099133      5.51e-03  
  304   -1488.1172177368      4.06e-03  
  305   -1488.0194692411      5.68e-03  
  306   -1488.1303807598      3.89e-03  
  307   -1488.1352530502      3.70e-03  
  308   -1488.1343926727      3.71e-03  
  309   -1488.1356949455      3.67e-03  
  310   -1488.0112230529      5.70e-03  
  311   -1488.1406447010      3.48e-03  
  312   -1488.1413657819      3.43e-03  
  313   -1488.1407589041      3.44e-03  
  314   -1488.1408972562      3.50e-03  
  315   -1488.0368954448      5.30e-03  
  316   -1488.0116464992      5.75e-03  
  317   -1488.0051293109      5.98e-03  
  318   -1488.1390448417      3.48e-03  
  319   -1488.1449315469      3.14e-03  
  320   -1488.1488449373      2.97e-03  
  321   -1488.0166832453      5.68e-03  
  322   -1487.6802619646      8.10e-03  
  323   -1487.5130867566      8.21e-03  
  324   -1487.5630740454      8.24e-03  
  325   -1487.6886974005      8.03e-03  
  326   -1487.6979907317      8.02e-03  
  327   -1487.8389832994      7.25e-03  
  328   -1487.9659944066      6.17e-03  
  329   -1487.9325052676      6.46e-03  
  330   -1487.5294653403      8.21e-03  
  331   -1487.5864858599      8.20e-03  
  332   -1487.9984065938      5.84e-03  
  333   -1487.8535588159      7.12e-03  
  334   -1487.6328647951      8.11e-03  
  335   -1488.0030892236      5.94e-03  
  336   -1484.7391275602      2.45e-02  
  337   -1486.2672988569      1.77e-02  
  338   -1487.1223383758      1.19e-02  
  339   -1488.0392631586      5.15e-03  
  340   -1488.0593316170      4.37e-03  
  341   -1488.0631100528      4.16e-03  
  342   -1487.1270124873      1.23e-02  
  343   -1488.1129485205      4.50e-03  
  344   -1488.0777719085      5.61e-03  
  345   -1488.0873226539      5.32e-03  
  346   -1488.1009592448      4.92e-03  
  347   -1488.1073688493      4.74e-03  
  348   -1488.1066094504      4.78e-03  
  349   -1488.0977044887      4.99e-03  
  350   -1488.0927661558      5.13e-03  
  351   -1488.0863866707      5.29e-03  
  352   -1488.0849179626      5.33e-03  
  353   -1488.0859704919      5.25e-03  
  354   -1488.0872456809      5.19e-03  
  355   -1488.0931283207      5.00e-03  
  356   -1488.0900150843      5.06e-03  
  357   -1482.9452370113      2.86e-02  
  358   -1482.9424536654      2.87e-02  
  359   -1482.8223540973      2.91e-02  
  360   -1482.8595507266      2.89e-02  
  361   -1482.8572909967      2.90e-02  
  362   -1482.7927352933      2.91e-02  
  363   -1482.7854275322      2.91e-02  
  364   -1482.7742955761      2.90e-02  
  365   -1482.7835734200      2.90e-02  
  366   -1482.7230807556      2.89e-02  
  367   -1482.7154682044      2.91e-02  
  368   -1484.7897744395      2.56e-02  
  369   -1487.3180495796      1.21e-02  
  370   -1488.1332556673      3.34e-03  
  371   -1485.5628552280      1.89e-02  
  372   -1485.5803953002      1.88e-02  
  373   -1485.5851691195      1.88e-02  
  374   -1485.5632545939      1.89e-02  
  375   -1485.5609284862      1.89e-02  
  376   -1485.5575727040      1.89e-02  
  377   -1485.5525506165      1.89e-02  
  378   -1485.5492862616      1.89e-02  
  379   -1485.5499885336      1.89e-02  
  380   -1485.5495990866      1.89e-02  
  381   -1485.5615278797      1.89e-02  
  382   -1485.5601601415      1.89e-02  
  383   -1485.5671821549      1.88e-02  
  384   -1485.5687810124      1.88e-02  
  385   -1485.5009590792      1.92e-02  
  386   -1462.3829625854      5.33e-02  
  387   -1466.7846399830      3.75e-02  
  388   -1486.1619250235      2.39e-02  
  389   -1484.4233579965      3.05e-02  
  390   -1486.3009628741      2.20e-02  
  391   -1484.3649910273      3.05e-02  
  392   -1484.3749816854      3.03e-02  
  393   -1484.3755172929      3.05e-02  
  394   -1486.5755553907      2.03e-02  
  395   -1483.8626226951      3.12e-02  
  396   -1482.2973777611      3.31e-02  
  397   -1483.9390034300      3.04e-02  
  398   -1482.5330890509      3.23e-02  
  399   -1478.5518628889      4.28e-02  
  400   -1478.5773132510      4.28e-02  
  401   -1471.1309394314      5.14e-02  
  402   -1471.8134987939      5.09e-02  
  403   -1477.3990778217      3.66e-02  
  404   -1478.7277231724      4.21e-02  
  405   -1478.6882714100      4.21e-02  
  406   -1478.5288496386      4.26e-02  
  407   -1483.8078772071      3.07e-02  
  408   -1482.1678108199      3.33e-02  
  409   -1483.7154374148      3.09e-02  
  410   -1480.0843369075      4.54e-02  
  411   -1483.9172893415      3.29e-02  
  412   -1481.0347878590      4.19e-02  
  413   -1480.9920660862      4.23e-02  
  414   -1480.5320703885      4.48e-02  
  415   -1486.8410568131      1.23e-02  
  416   -1478.1869430010      4.49e-02  
  417   -1477.8960271644      4.63e-02  
  418   -1475.2800902343      4.81e-02  
  419   -1478.2917515893      4.38e-02  
  420   -1478.6025497989      4.22e-02  
  421   -1482.6053956324      3.14e-02  
  422   -1484.5146591269      2.82e-02  
  423   -1482.6455080974      3.12e-02  
  424   -1484.5122652002      2.85e-02  
  425   -1478.8577400947      4.13e-02  
  426   -1484.6385797711      2.76e-02  
  427   -1487.9067268863      8.72e-03  
  428   -1484.6742632479      2.63e-02  
  429   -1483.9561285258      2.88e-02  
  430   -1484.7644929511      2.56e-02  
  431   -1485.9468707170      1.91e-02  
  432   -1484.8084179252      2.64e-02  
  433   -1484.7619586827      2.66e-02  
  434   -1484.7678564404      2.66e-02  
  435   -1484.7880171293      2.65e-02  
  436   -1484.7843786129      2.64e-02  
  437   -1484.8029866857      2.63e-02  
  438   -1484.7978015450      2.64e-02  
  439   -1486.2275058245      2.31e-02  
  440   -1485.2250204488      2.68e-02  
  441   -1486.9191263007      1.60e-02  
  442   -1487.9252429886      8.01e-03  
  443   -1487.8821317292      9.01e-03  
  444   -1487.9447065203      6.65e-03  
  445   -1488.1076331847      3.93e-03  
  446   -1487.4751513287      8.78e-03  
  447   -1487.9065960105      7.90e-03  
  448   -1487.5200561444      8.55e-03  
  449   -1487.4943197953      8.50e-03  
  450   -1487.9209671462      7.64e-03  
  451   -1487.9411162349      7.24e-03  
  452   -1487.9452661532      7.13e-03  
  453   -1487.9566532580      6.88e-03  
  454   -1487.9430050912      7.05e-03  
  455   -1487.9343766401      7.06e-03  
  456   -1488.1355337747      3.65e-03  
  457   -1488.1384142901      3.40e-03  
  458   -1488.1362231374      3.47e-03  
  459   -1488.0891203035      4.57e-03  
  460   -1488.0902260914      4.55e-03  
  461   -1488.0804417590      4.86e-03  
  462   -1488.0799582631      4.88e-03  
  463   -1488.0809776048      4.80e-03  
  464   -1488.1351709436      3.52e-03  
  465   -1488.0396308194      5.51e-03  
  466   -1487.4938060996      8.32e-03  
  467   -1487.4989041443      8.32e-03  
  468   -1487.4969423916      8.33e-03  
  469   -1487.4988866540      8.30e-03  
  470   -1487.5024149334      8.26e-03  
  471   -1487.5037294657      8.25e-03  
  472   -1487.5063579014      8.21e-03  
  473   -1487.7313077036      7.84e-03  
  474   -1487.5059269129      8.19e-03  
  475   -1487.5175727700      8.14e-03  
  476   -1487.5182680686      8.13e-03  
  477   -1488.1278624461      3.63e-03  
  478   -1487.9909155356      6.22e-03  
  479   -1487.9946229392      6.17e-03  
  480   -1488.1075215862      4.63e-03  
  481   -1488.0134225228      5.98e-03  
  482   -1487.9805132512      6.44e-03  
  483   -1487.9814041946      6.43e-03  
  484   -1487.5202338112      8.24e-03  
  485   -1487.9607332019      6.46e-03  
  486   -1487.9734776122      6.38e-03  
  487   -1487.5942619848      8.26e-03  
  488   -1487.9516551086      6.54e-03  
  489   -1487.9670811093      6.38e-03  
  490   -1487.9839918922      6.33e-03  
  491   -1487.9942417070      6.25e-03  
  492   -1487.9885786271      6.35e-03  
  493   -1488.0493199504      5.60e-03  
  494   -1488.1356901096      3.42e-03  
  495   -1488.0862122243      5.22e-03  
  496   -1487.5184444354      8.34e-03  
  497   -1487.8827328385      7.08e-03  
  498   -1487.9703748304      6.39e-03  
  499   -1488.0026296750      6.11e-03  
  500   -1487.5264969423      8.41e-03  
  501   -1487.5554788399      8.50e-03  
  502   -1487.5073186327      8.47e-03  
  503   -1487.4955994085      8.43e-03  
  504   -1487.5004605045      8.38e-03  
  505   -1487.4996477583      8.37e-03  
  506   -1487.4974003442      8.40e-03  
  507   -1487.5262929703      8.36e-03  
  508   -1487.5358981625      8.37e-03  
  509   -1488.0892849750      4.58e-03  
  510   -1487.5081592355      7.70e-03  
  511   -1488.0961148572      5.01e-03  
  512   -1488.1210971187      4.08e-03  
  513   -1488.1517222462      2.86e-03  
  514   -1487.4983951528      8.33e-03  
  515   -1485.6178589180      1.87e-02  
  516   -1487.4725692093      9.03e-03  
  517   -1487.9594460953      7.28e-03  
  518   -1487.4900783211      8.52e-03  
  519   -1487.4912393412      8.50e-03  
  520   -1487.4927027426      8.48e-03  
  521   -1487.4924906378      8.48e-03  
  522   -1487.4877425143      8.55e-03  
  523   -1487.4861554829      8.57e-03  
  524   -1487.4913297556      8.50e-03  
  525   -1487.4799836316      8.66e-03  
  526   -1487.4800665092      8.63e-03  
  527   -1488.0789450908      4.79e-03  
  528   -1487.5021674978      8.43e-03  
  529   -1488.1257571150      3.76e-03  
  530   -1488.0328281623      5.48e-03  
  531   -1487.9638424216      6.47e-03  
  532   -1488.0935078864      5.05e-03  
  533   -1487.9727352296      6.48e-03  
  534   -1488.1194836158      4.35e-03  
  535   -1488.1051250084      4.55e-03  
  536   -1487.9686398045      6.60e-03  
  537   -1487.9653118193      6.67e-03  
  538   -1487.9675760204      6.65e-03  
  539   -1487.9674664875      6.64e-03  
  540   -1487.9703062792      6.56e-03  
  541   -1487.9707628169      6.55e-03  
  542   -1487.9692519734      6.59e-03  
  543   -1487.9701471093      6.57e-03  
  544   -1487.9728645461      6.52e-03  
  545   -1487.4813315764      8.53e-03  
  546   -1487.0181294120      1.25e-02  
  547   -1487.3658984267      1.17e-02  
  548   -1488.0502592561      5.57e-03  
  549   -1487.5139115303      8.59e-03  
  550   -1487.4907361674      8.62e-03  
  551   -1488.0770590545      5.15e-03  
  552   -1488.0427859818      5.48e-03  
  553   -1488.0251904339      5.77e-03  
  554   -1488.0921531294      4.62e-03  
  555   -1488.0581828902      5.11e-03  
  556   -1487.9946150832      6.17e-03  
  557   -1488.0499136127      5.11e-03  
  558   -1487.9686029618      6.52e-03  
  559   -1487.9624030083      6.65e-03  
  560   -1487.9760332126      6.54e-03  
  561   -1487.9685347490      6.58e-03  
  562   -1487.9618734775      6.68e-03  
  563   -1487.9575016496      6.83e-03  
  564   -1488.1152473277      4.28e-03  
  565   -1488.0245126146      5.94e-03  
  566   -1487.9941625419      6.12e-03  
  567   -1487.9906159881      6.15e-03  
  568   -1487.9845311892      6.23e-03  
  569   -1487.9895702429      6.16e-03  
  570   -1488.0341953048      5.52e-03  
  571   -1488.0330434686      5.53e-03  
  572   -1488.0263247280      5.52e-03  
  573   -1488.0163866471      5.90e-03  
  574   -1487.9761512102      6.14e-03  
  575   -1487.5597193565      8.02e-03  
  576   -1487.5431186295      7.99e-03  
  577   -1487.8108093354      7.38e-03  
  578   -1487.5387689748      7.99e-03  
  579   -1487.7422138414      7.64e-03  
  580   -1484.8445622219      2.41e-02  
  581   -1487.1358898174      1.25e-02  
  582   -1488.0956036171      4.87e-03  
  583   -1488.1426256293      3.55e-03  
  584   -1488.0437081136      5.23e-03  
  585   -1488.0884793062      4.75e-03  
  586   -1488.1629847160      3.16e-03  
  587   -1488.1542283835      3.09e-03  
  588   -1488.0017632090      5.63e-03  
  589   -1488.0349401359      5.26e-03  
  590   -1488.0344297836      5.30e-03  
  591   -1488.0999047028      4.54e-03  
  592   -1488.0429272391      5.22e-03  
  593   -1487.8866657606      6.79e-03  
  594   -1487.5478667983      7.97e-03  
  595   -1487.8739835019      6.85e-03  
  596   -1488.0037677250      5.78e-03  
  597   -1487.9737307855      6.08e-03  
  598   -1488.1434573882      3.22e-03  
  599   -1488.1563886304      2.89e-03  
  600   -1487.9999073107      5.80e-03  
  601   -1487.5270129068      8.14e-03  
  602   -1487.5625177503      8.10e-03  
  603   -1487.8576596346      7.06e-03  
  604   -1487.5264415414      8.14e-03  
  605   -1487.5231327273      8.15e-03  
  606   -1487.5215250836      8.16e-03  
  607   -1487.6195810833      8.07e-03  
  608   -1487.9919013560      5.89e-03  
  609   -1488.0258381564      5.53e-03  
  610   -1488.0049146934      5.80e-03  
  611   -1487.6546207431      8.03e-03  
  612   -1487.7153635897      7.84e-03  
  613   -1487.6732591653      7.99e-03  
  614   -1487.9300830148      6.47e-03  
  615   -1484.8153193726      2.48e-02  
  616   -1487.0981682554      1.18e-02  
  617   -1488.0240377998      5.67e-03  
  618   -1488.0372272565      5.14e-03  
  619   -1488.0742308849      3.94e-03  
  620   -1487.0525528533      1.25e-02  
  621   -1488.0023940614      5.67e-03  
  622   -1488.0127800209      5.46e-03  
  623   -1488.0131025681      5.47e-03  
  624   -1488.0450891431      4.80e-03  
  625   -1488.0187997700      5.40e-03  
  626   -1488.0585392483      4.48e-03  
  627   -1487.9746660668      6.14e-03  
  628   -1488.0576295525      4.61e-03  
  629   -1488.0743325389      5.57e-03  
  630   -1488.0769211036      5.46e-03  
  631   -1488.0819626722      5.26e-03  
  632   -1487.1010961072      1.16e-02  
  633   -1488.0781842979      5.35e-03  
  634   -1488.0838706265      5.18e-03  
  635   -1488.1392178155      3.50e-03  
  636   -1488.1160641053      4.26e-03  
  637   -1487.9518604276      6.38e-03  
  638   -1487.5522435198      8.17e-03  
  639   -1487.5028475315      8.19e-03  
  640   -1487.4852864084      8.45e-03  
  641   -1487.5016474708      8.22e-03  
  642   -1487.5105854811      8.15e-03  
  643   -1487.5128188659      8.14e-03  
  644   -1487.4924997686      8.38e-03  
  645   -1487.4935287941      8.34e-03  
  646   -1487.5353287170      8.22e-03  
  647   -1487.9991801421      6.19e-03  
  648   -1487.9346765205      6.56e-03  
  649   -1488.0472350527      5.23e-03  
  650   -1488.1374860799      3.41e-03  
  651   -1488.0323471970      5.62e-03  
  652   -1488.1277479276      3.92e-03  
  653   -1488.0681469789      5.10e-03  
  654   -1488.1741289601      2.63e-03  
  655   -1488.0254625846      5.59e-03  
  656   -1487.7554953972      7.80e-03  
  657   -1487.8817134367      7.01e-03  
  658   -1487.5129350407      8.16e-03  
  659   -1487.5538181061      8.17e-03  
  660   -1487.7478123046      7.84e-03  
  661   -1487.6715398565      8.10e-03  
  662   -1487.7271894673      7.93e-03  
  663   -1487.8305156337      7.38e-03  
  664   -1487.5834429274      8.20e-03  
  665   -1487.5365609818      8.18e-03  
  666   -1487.5231231684      8.14e-03  
  667   -1487.8222664565      7.40e-03  
  668   -1487.9822524002      6.27e-03  
  669   -1488.0587656349      4.82e-03  
  670   -1484.9532862662      2.31e-02  
  671   -1486.2682905653      1.75e-02  
  672   -1488.0743785804      5.38e-03  
  673   -1488.1288221670      4.19e-03  
  674   -1488.1195442702      4.32e-03  
  675   -1488.1281890018      4.00e-03  
  676   -1488.1276248643      4.02e-03  
  677   -1488.1297427778      3.95e-03  
  678   -1488.1323109758      3.85e-03  
  679   -1488.1339205957      3.84e-03  
  680   -1488.1352211857      3.74e-03  
  681   -1488.1379184348      3.64e-03  
  682   -1488.1314245712      3.88e-03  
  683   -1488.1264475922      3.94e-03  
  684   -1487.9639777760      6.16e-03  
  685   -1487.4928757837      8.33e-03  
  686   -1487.5029388640      8.25e-03  
  687   -1487.4869970225      8.60e-03  
  688   -1487.4859539666      8.63e-03  
  689   -1485.7349563986      1.89e-02  
  690   -1487.4794498678      8.68e-03  
  691   -1487.4834850226      8.58e-03  
  692   -1485.6129159346      1.84e-02  
  693   -1485.6131516957      1.84e-02  
  694   -1485.6182011062      1.84e-02  
  695   -1485.6219575826      1.83e-02  
  696   -1485.6274505249      1.83e-02  
  697   -1488.0498869794      5.67e-03  
  698   -1488.0824588907      4.70e-03  
  699   -1487.5014996597      8.21e-03  
  700   -1487.4677183643      9.38e-03  
  701   -1485.8014379333      1.83e-02  
  702   -1485.9228049042      1.87e-02  
  703   -1485.8139409755      1.84e-02  
  704   -1485.7990195850      1.84e-02  
  705   -1485.7975048775      1.84e-02  
  706   -1485.7827656012      1.85e-02  
  707   -1485.7727914429      1.86e-02  
  708   -1485.7751054189      1.85e-02  
  709   -1485.7806282416      1.85e-02  
  710   -1485.7804551296      1.85e-02  
  711   -1485.7792508538      1.85e-02  
  712   -1485.7670863692      1.86e-02  
  713   -1487.8557425422      9.09e-03  
  714   -1480.0059505011      2.91e-02  
  715   -1488.0330646773      5.73e-03  
  716   -1482.9039283795      2.80e-02  
  717   -1482.8538596978      2.81e-02  
  718   -1482.8459539927      2.81e-02  
  719   -1482.8464457421      2.80e-02  
  720   -1483.0930206823      2.81e-02  
  721   -1483.0166414430      2.78e-02  
  722   -1482.9220301615      2.77e-02  
  723   -1482.9114967902      2.79e-02  
  724   -1482.9143159186      2.78e-02  
  725   -1482.9047094673      2.79e-02  
  726   -1482.9145041202      2.78e-02  
  727   -1487.4633481210      8.66e-03  
  728   -1488.1083197858      4.26e-03  
  729   -1488.0101448035      6.67e-03  
  730   -1487.5118425883      8.50e-03  
  731   -1487.5047661323      8.63e-03  
  732   -1487.9339529418      6.85e-03  
  733   -1487.4952637409      8.30e-03  
  734   -1488.0610295961      5.38e-03  
  735   -1487.4899539070      8.52e-03  
  736   -1487.4897477492      8.53e-03  
  737   -1487.4894990503      8.53e-03  
  738   -1487.4906430621      8.53e-03  
  739   -1487.4880229546      8.57e-03  
  740   -1487.5008787506      8.36e-03  
  741   -1487.5312250597      8.23e-03  
  742   -1487.5565865113      8.21e-03  
  743   -1487.9558915863      6.79e-03  
  744   -1488.0921172869      5.03e-03  
  745   -1488.1114068855      4.29e-03  
  746   -1487.9732711406      6.57e-03  
  747   -1487.9771025902      6.49e-03  
  748   -1488.0930562721      4.35e-03  
  749   -1487.9587760787      6.99e-03  
  750   -1488.1259396655      3.72e-03  
  751   -1488.0934990206      4.34e-03  
  752   -1488.1057309573      4.25e-03  
  753   -1487.5288673818      8.41e-03  
  754   -1487.5917270041      8.52e-03  
  755   -1487.4890662797      8.54e-03  
  756   -1487.4891458336      8.52e-03  
  757   -1487.4902014837      8.50e-03  
  758   -1487.4888180247      8.52e-03  
  759   -1487.4905861882      8.50e-03  
  760   -1487.5250127655      8.37e-03  
  761   -1487.5666633490      8.40e-03  
  762   -1487.9731319624      6.61e-03  
  763   -1487.4931980730      8.43e-03  
  764   -1487.5000315321      8.33e-03  
  765   -1487.5004338604      8.33e-03  
  766   -1487.8695210120      8.54e-03  
  767   -1487.5037637749      8.29e-03  
  768   -1484.7587241180      2.42e-02  
  769   -1486.3910950511      1.74e-02  
  770   -1487.1439738616      1.21e-02  
  771   -1487.9439064678      6.90e-03  
  772   -1487.2013132345      1.16e-02  
  773   -1487.2132061159      1.15e-02  
  774   -1488.0574608545      5.80e-03  
  775   -1488.0735364191      5.08e-03  
  776   -1488.0859414809      5.31e-03  
  777   -1488.0881267395      4.80e-03  
  778   -1488.0938687966      4.54e-03  
  779   -1488.1066169967      4.47e-03  
  780   -1488.1123438024      4.27e-03  
  781   -1488.1228742436      3.92e-03  
  782   -1487.5452424888      8.39e-03  
  783   -1487.4948457241      8.46e-03  
  784   -1487.5071627034      8.36e-03  
  785   -1487.5104165676      8.43e-03  
  786   -1487.5348445112      8.46e-03  
  787   -1487.5117854897      8.59e-03  
  788   -1487.5043094602      8.60e-03  
  789   -1487.4816827262      8.92e-03  
  790   -1485.5611575241      1.90e-02  
  791   -1485.5530076033      1.91e-02  
  792   -1487.4492484240      9.34e-03  
  793   -1487.4880715015      8.98e-03  
  794   -1487.1036933225      1.19e-02  
  795   -1488.0606162448      5.20e-03  
  796   -1488.0931736702      4.12e-03  
  797   -1488.0522175747      5.70e-03  
  798   -1487.9502852040      7.42e-03  
  799   -1488.0291600116      6.02e-03  
  800   -1487.9468845228      7.13e-03  
  801   -1487.9450297791      7.08e-03  
  802   -1487.9435641395      7.15e-03  
  803   -1487.9407455306      7.18e-03  
  804   -1487.9406290842      7.15e-03  
  805   -1488.0889907665      5.02e-03  
  806   -1487.9615497556      6.72e-03  
  807   -1488.0022318227      5.99e-03  
  808   -1487.9649796398      6.60e-03  
  809   -1487.9684232819      6.58e-03  
  810   -1487.5213086881      8.20e-03  
  811   -1487.9649923622      6.69e-03  
  812   -1488.1076695339      4.20e-03  
  813   -1487.9791970121      6.39e-03  
  814   -1487.9617411092      6.44e-03  
  815   -1487.9760781095      6.38e-03  
  816   -1487.9791741048      6.44e-03  
  817   -1487.5062983117      8.20e-03  
  818   -1487.5233452881      8.14e-03  
  819   -1488.1482759302      3.96e-03  
  820   -1487.9852315729      6.43e-03  
  821   -1488.1205520922      4.16e-03  
  822   -1488.1267335095      3.89e-03  
  823   -1487.5388188036      8.36e-03  
  824   -1487.8525067633      7.47e-03  
  825   -1487.9843451633      6.41e-03  
  826   -1487.9768981493      6.55e-03  
  827   -1487.9748978102      6.58e-03  
  828   -1487.9984560116      6.35e-03  
  829   -1488.1390909605      3.22e-03  
  830   -1487.9916149503      6.34e-03  
  831   -1487.9933274527      6.26e-03  
  832   -1487.9912782967      6.29e-03  
  833   -1488.0458968969      5.76e-03  
  834   -1487.4771404958      8.71e-03  
  835   -1487.5223164750      8.41e-03  
  836   -1487.5039088693      8.41e-03  
  837   -1488.0179627480      5.91e-03  
  838   -1488.1187368957      4.14e-03  
  839   -1487.9959079024      6.23e-03  
  840   -1488.0042397006      6.14e-03  
  841   -1487.9837366391      6.19e-03  
  842   -1487.9392098885      6.56e-03  
  843   -1487.9380363970      6.57e-03  
  844   -1487.9658473009      6.39e-03  
  845   -1487.7716202341      7.92e-03  
  846   -1488.1493337552      3.02e-03  
  847   -1487.4995628617      8.34e-03  
  848   -1487.5050176512      8.33e-03  
  849   -1487.5010124009      8.35e-03  
  850   -1487.4960307910      8.37e-03  
  851   -1487.4927505071      8.40e-03  
  852   -1487.4897119919      8.44e-03  
  853   -1487.4880689649      8.50e-03  
  854   -1487.4951269805      8.22e-03  
  855   -1488.0152355084      5.75e-03  
  856   -1488.1459061221      3.26e-03  
  857   -1488.0279270612      5.60e-03  
  858   -1487.5728313227      8.23e-03  
  859   -1487.5740193764      8.22e-03  
  860   -1487.5296033813      8.20e-03  
  861   -1487.9830883957      6.03e-03  
  862   -1488.0210507690      5.60e-03  
  863   -1488.0372069079      5.41e-03  
  864   -1487.6553818194      8.13e-03  
  865   -1488.0565773204      5.19e-03  
  866   -1488.0695068124      5.06e-03  
  867   -1488.0794220982      4.95e-03  
  868   -1488.0258815489      5.52e-03  
  869   -1487.7867096489      7.58e-03  
  870   -1487.6391984994      8.17e-03  
  871   -1487.9814187249      6.00e-03  
  872   -1486.2339430950      1.82e-02  
  873   -1488.1496184376      3.98e-03  
  874   -1487.5621671490      7.82e-03  
  875   -1487.5321871170      7.97e-03  
  876   -1487.6005939199      7.93e-03  
  877   -1488.1057762677      4.36e-03  
  878   -1488.1352335256      3.76e-03  
  879   -1488.1446771813      3.36e-03  
  880   -1487.8172286534      7.23e-03  
  881   -1487.7048505223      7.78e-03  
  882   -1487.7152231852      7.74e-03  
  883   -1487.7277836133      7.68e-03  
  884   -1487.7324945256      7.66e-03  
  885   -1487.7510961452      7.58e-03  
  886   -1487.8294599338      7.14e-03  
  887   -1487.9286078547      6.38e-03  
  888   -1487.9262888401      6.52e-03  
  889   -1487.7882660416      7.63e-03  
  890   -1488.0270611889      5.61e-03  
  891   -1488.0101234564      5.79e-03  
  892   -1488.0149585412      5.73e-03  
  893   -1487.6290743354      8.30e-03  
  894   -1488.1358917053      3.44e-03  
  895   -1488.1428110027      3.42e-03  
  896   -1488.1139897605      4.47e-03  
  897   -1487.9129566421      6.61e-03  
  898   -1487.9859263888      5.96e-03  
  899   -1487.9875388699      5.94e-03  
  900   -1487.9951460530      5.87e-03  
  901   -1488.0241762096      5.53e-03  
  902   -1488.1537358353      2.98e-03  
  903   -1487.5067004956      8.09e-03  
  904   -1487.5405809883      8.09e-03  
  905   -1487.5197416142      8.07e-03  
  906   -1487.7440956423      7.76e-03  
  907   -1487.7996485136      7.45e-03  
  908   -1487.9097106420      6.63e-03  
  909   -1487.7888065424      7.54e-03  
  910   -1488.1530751449      2.96e-03  
  911   -1487.9758564872      6.11e-03  
  912   -1487.5247964012      8.26e-03  
  913   -1487.5030103781      8.29e-03  
  914   -1487.5007767804      8.30e-03  
  915   -1487.5032844557      8.29e-03  
  916   -1487.4973477046      8.33e-03  
  917   -1487.4967019140      8.35e-03  
  918   -1487.4953800467      8.32e-03  
  919   -1487.7968815426      7.73e-03  
  920   -1487.8153458222      7.60e-03  
  921   -1487.5162698030      8.32e-03  
  922   -1487.5232420410      8.26e-03  
  923   -1487.5261789687      8.28e-03  
  924   -1487.5362897168      8.27e-03  
  925   -1488.1219364620      3.81e-03  
  926   -1487.9915486771      6.14e-03  
  927   -1487.8307851222      7.18e-03  
  928   -1488.1707905381      3.17e-03  
  929   -1488.0136455345      5.72e-03  
  930   -1488.0047343812      5.88e-03  
  931   -1488.0095465803      5.81e-03  
  932   -1487.5332626429      8.05e-03  
  933   -1487.9702303810      6.22e-03  
  934   -1487.9840014179      6.18e-03  
  935   -1487.5316673399      8.06e-03  
  936   -1487.5484981812      8.05e-03  
  937   -1487.5515288967      8.05e-03  
  938   -1487.5398935414      8.03e-03  
  939   -1487.6564543620      7.99e-03  
  940   -1487.6449461278      8.01e-03  
  941   -1487.5034603879      8.02e-03  
  942   -1488.0710120218      5.27e-03  
  943   -1488.1252014584      4.00e-03  
  944   -1487.7485246236      7.70e-03  
  945   -1488.0229021905      5.70e-03  
  946   -1487.9004777442      6.94e-03  
  947   -1487.7265327073      7.99e-03  
  948   -1487.8278959948      7.27e-03  
  949   -1487.6289646012      8.12e-03  
  950   -1487.6137301076      8.08e-03  
  951   -1488.1341993808      3.80e-03  
  952   -1487.6438805876      8.04e-03  
  953   -1487.5460117493      8.05e-03  
  954   -1487.5445858524      8.04e-03  
  955   -1487.5435913247      8.03e-03  
  956   -1487.7845592052      7.61e-03  
  957   -1487.5483824378      8.08e-03  
  958   -1487.5302082224      8.08e-03  
  959   -1488.1050189024      4.67e-03  
  960   -1487.9920955062      5.92e-03  
  961   -1488.0457100272      5.25e-03  
  962   -1488.0410902122      5.28e-03  
  963   -1488.0369083671      5.32e-03  
  964   -1488.0449129940      5.32e-03  
  965   -1488.0119541898      5.71e-03  
  966   -1488.0218643204      5.54e-03  
  967   -1488.0635963677      5.51e-03  
  968   -1488.1132855951      4.08e-03  
  969   -1488.0350474215      5.44e-03  
  970   -1488.0357665402      5.42e-03  
  971   -1488.0406664647      5.37e-03  
  972   -1488.0414379516      5.34e-03  
  973   -1488.0310502244      5.47e-03  
  974   -1488.0283130628      5.50e-03  
  975   -1488.1446695558      3.24e-03  
  976   -1487.9752385758      6.18e-03  
  977   -1487.8393296832      7.18e-03  
  978   -1487.9671253757      6.28e-03  
  979   -1487.9878754257      6.19e-03  
  980   -1487.5288166697      8.13e-03  
  981   -1487.5493674530      8.20e-03  
  982   -1487.5057416466      8.22e-03  
  983   -1487.5652975346      8.20e-03  
  984   -1488.1399434248      3.35e-03  
  985   -1487.9344863521      6.46e-03  
  986   -1487.8167956441      7.38e-03  
  987   -1488.0203749508      5.66e-03  
  988   -1488.0186015291      5.71e-03  
  989   -1488.0178662680      5.72e-03  
  990   -1488.0165972979      5.78e-03  
  991   -1488.1270278260      4.01e-03  
  992   -1488.0129633932      5.86e-03  
  993   -1487.9262804891      6.56e-03  
  994   -1487.9758312012      6.20e-03  
  995   -1487.9997455136      6.07e-03  
  996   -1488.0010677746      6.05e-03  
  997   -1488.0037937808      6.02e-03  
  998   -1488.0103457444      5.93e-03  
  999   -1487.9646615230      6.18e-03  
 1000   -1488.1443745018      3.26e-03  
gen_scfman_exception: SCF failed to converge

 Q-Chem fatal error occurred in module libgscf/gen_scfman/gen_scfman_main.C, line 142:

 Error in gen_scfman


 Please submit a crash report at q-chem.com/reporter 
 
 
