
Running Job 1 of 1 zea_2_opt_631g_gga.in
qchem zea_2_opt_631g_gga.in_7678.0 /scr/c295_lal/137013/qchem7678/ 1
/usr/software/qchem_511/exe/qcprog.exe_s zea_2_opt_631g_gga.in_7678.0 /scr/c295_lal/137013/qchem7678/
Check license passed

                  Welcome to Q-Chem
     A Quantum Leap Into The Future Of Chemistry


 Q-Chem 5.1, Q-Chem, Inc., Pleasanton, CA (2018)

 Yihan Shao,  Zhengting Gan,  E. Epifanovsky,  A. T. B. Gilbert,  M. Wormit,  
 J. Kussmann,  A. W. Lange,  A. Behn,  Jia Deng,  Xintian Feng,  D. Ghosh,  
 M. Goldey,  P. R. Horn,  L. D. Jacobson,  I. Kaliman,  T. Kus,  A. Landau,  
 Jie Liu,  E. I. Proynov,  R. M. Richard,  R. P. Steele,  E. J. Sundstrom,  
 H. L. Woodcock III,  P. M. Zimmerman,  D. Zuev,  B. Albrecht,  E. Alguire,  
 S. A. Baeppler,  D. Barton,  Z. Benda,  Y. A. Bernard,  E. J. Berquist,  
 K. B. Bravaya,  H. Burton,  D. Casanova,  Chun-Min Chang,  Yunqing Chen,  
 A. Chien,  K. D. Closser,  M. P. Coons,  S. Coriani,  S. Dasgupta,  
 A. L. Dempwolff,  M. Diedenhofen,  Hainam Do,  R. G. Edgar,  Po-Tung Fang,  
 S. Faraji,  S. Fatehi,  Qingguo Feng,  K. D. Fenk,  J. Fosso-Tande,  
 Qinghui Ge,  A. Ghysels,  G. Gidofalvi,  J. Gomes,  J. Gonthier,  A. Gunina,  
 D. Hait,  M. W. D. Hanson-Heine,  P. H. P. Harbach,  A. W. Hauser,  
 J. E. Herr,  E. G. Hohenstein,  Z. C. Holden,  Kerwin Hui,  B. C. Huynh,  
 T.-C. Jagau,  Hyunjun Ji,  B. Kaduk,  K. Khistyaev,  Jaehoon Kim,  
 P. Klunzinger,  K. Koh,  D. Kosenkov,  L. Koulias,  T. Kowalczyk,  
 C. M. Krauter,  A. Kunitsa,  Ka Un Lao,  A. Laurent,  K. V. Lawler,  
 Joonho Lee,  D. Lefrancois,  S. Lehtola,  D. S. Levine,  Yi-Pei Li,  
 You-Sheng Lin,  Fenglai Liu,  E. Livshits,  A. Luenser,  P. Manohar,  
 E. Mansoor,  S. F. Manzer,  Shan-Ping Mao,  Yuezhi Mao,  N. Mardirossian,  
 A. V. Marenich,  T. Markovich,  L. A. Martinez-Martinez,  S. A. Maurer,  
 N. J. Mayhall,  S. C. McKenzie,  J.-M. Mewes,  A. F. Morrison,  
 J. W. Mullinax,  K. Nanda,  T. S. Nguyen-Beck,  R. Olivares-Amaya,  
 J. A. Parkhill,  T. M. Perrine,  F. Plasser,  P. Pokhilko,  S. Prager,  
 A. Prociuk,  E. Ramos,  D. R. Rehn,  F. Rob,  M. Schneider,  N. Sergueev,  
 S. M. Sharada,  S. Sharma,  D. W. Small,  T. Stauch,  T. Stein,  
 Yu-Chuan Su,  A. J. W. Thom,  A. Tkatchenko,  T. Tsuchimochi,  N. M. Tubman,  
 L. Vogt,  M. L. Vidal,  O. Vydrov,  M. A. Watson,  J. Wenzel,  
 M. de Wergifosse,  T. A. Wesolowski,  A. White,  J. Witte,  A. Yamada,  
 Jun Yang,  K. Yao,  S. Yeganeh,  S. R. Yost,  Zhi-Qiang You,  A. Zech,  
 Igor Ying Zhang,  Xing Zhang,  Yan Zhao,  Ying Zhu,  B. R. Brooks,  
 G. K. L. Chan,  C. J. Cramer,  M. S. Gordon,  W. J. Hehre,  A. Klamt,  
 M. W. Schmidt,  C. D. Sherrill,  D. G. Truhlar,  A. Aspuru-Guzik,  R. Baer,  
 A. T. Bell,  N. A. Besley,  Jeng-Da Chai,  A. E. DePrince, III,  
 R. A. DiStasio Jr.,  A. Dreuw,  B. D. Dunietz,  T. R. Furlani,  
 Chao-Ping Hsu,  Yousung Jung,  Jing Kong,  D. S. Lambrecht,  WanZhen Liang,  
 C. Ochsenfeld,  V. A. Rassolov,  L. V. Slipchenko,  J. E. Subotnik,  
 T. Van Voorhis,  J. M. Herbert,  A. I. Krylov,  P. M. W. Gill,  M. Head-Gordon

 Contributors to earlier versions of Q-Chem not listed above: 
 R. D. Adamson,  B. Austin,  J. Baker,  G. J. O. Beran,  K. Brandhorst,  
 S. T. Brown,  E. F. C. Byrd,  A. K. Chakraborty,  C.-L. Cheng,  
 Siu Hung Chien,  D. M. Chipman,  D. L. Crittenden,  H. Dachsel,  
 R. J. Doerksen,  A. D. Dutoi,  L. Fusti-Molnar,  W. A. Goddard III,  
 A. Golubeva-Zadorozhnaya,  S. R. Gwaltney,  G. Hawkins,  A. Heyden,  
 S. Hirata,  G. Kedziora,  F. J. Keil,  C. Kelley,  Jihan Kim,  R. A. King,  
 R. Z. Khaliullin,  P. P. Korambath,  W. Kurlancheek,  A. M. Lee,  M. S. Lee,  
 S. V. Levchenko,  Ching Yeh Lin,  D. Liotard,  R. C. Lochan,  I. Lotan,  
 P. E. Maslen,  N. Nair,  D. P. O'Neill,  D. Neuhauser,  E. Neuscamman,  
 C. M. Oana,  R. Olson,  B. Peters,  R. Peverati,  P. A. Pieniazek,  
 Y. M. Rhee,  J. Ritchie,  M. A. Rohrdanz,  E. Rosta,  N. J. Russ,  
 H. F. Schaefer III,  N. E. Schultz,  N. Shenvi,  A. C. Simmonett,  A. Sodt,  
 D. Stuck,  K. S. Thanthiriwatte,  V. Vanovschi,  Tao Wang,  A. Warshel,  
 C. F. Williams,  Q. Wu,  X. Xu,  W. Zhang

 Please cite Q-Chem as follows:
 Y. Shao et al., Mol. Phys. 113, 184-215 (2015)
 DOI: 10.1080/00268976.2014.952696

 Q-Chem 5.1.1 for Intel X86 EM64T Linux

 Parts of Q-Chem use Armadillo 8.300.2 (Tropical Shenanigans).
 http://arma.sourceforge.net/

 Q-Chem begins on Tue Oct 30 21:30:06 2018  

Host: cub-0-5.local
0

     Scratch files written to /scr/c295_lal/137013/qchem7678//
 Aug318 |scratch|qcdevops|jenkins|workspace|build_RNUM -1
Processing $rem in /usr/software/qchem_511/config/preferences.
 MEM_TOTAL  2000 
Input Ideriv = 2
Curr. Ideriv = -1
Max.  Ideriv = 2

Checking the input file for inconsistencies... 	...done.

--------------------------------------------------------------
User input:
--------------------------------------------------------------
$molecule
0 1
C         -0.29035        4.20842       -1.28344
C         -0.62064        3.12665       -0.56577
C          0.39026        2.41313        0.24211
C          0.06108        1.33105        0.96015
C          1.07299        0.61741        1.76954
C          0.74530       -0.48394        2.46932
H         -1.64634        2.76487       -0.57469
H          1.41561        2.77593        0.25085
H          2.09133        0.98543        1.74465
C          1.69582       -1.32607        3.28642
H         -0.27187       -0.83744        2.34925
C          2.78296       -0.81535        3.97090
C          3.75021       -1.71799        4.71537
C          3.09572       -2.98957        5.24888
H          4.26218       -1.18145        5.54403
H          4.54887       -2.00125        3.99488
C          2.45366       -3.68958        4.05483
O          2.15343       -2.70188        6.24649
H          3.88083       -3.66196        5.66702
C          1.34367       -2.84003        3.36187
H          2.06670       -4.69535        4.33075
H          3.28432       -3.86788        3.33306
C          3.09403        0.65973        4.13831
H          2.30947        1.35504        3.80333
H          4.06239        0.90154        3.65236
H          3.17994        0.88386        5.22263
C          0.00683       -3.01374        4.13028
H          0.04873       -2.57804        5.14642
H         -0.25335       -4.09030        4.22296
H         -0.84221       -2.52910        3.60947
C          1.15922       -3.42553        1.94131
H          2.09060       -3.30639        1.34654
H          0.33720       -2.92248        1.39066
H          0.91133       -4.50829        1.99124
C         -1.30037        4.92320       -2.09135
C         -0.96874        6.00479       -2.80870
C         -1.97774        6.72098       -3.61663
C         -1.64461        7.80239       -4.33357
H         -3.00425        6.36151       -3.62616
H          0.05751        6.36509       -2.79922
H          0.73549        4.56988       -1.27428
C         -2.65250        8.52007       -5.14156
C         -2.31782        9.60128       -5.85809
C         -3.32458       10.32042       -6.66618
C         -2.98838       11.40135       -7.38242
H         -1.96081       11.75778       -7.37184
H         -4.35197        9.96349       -6.67642
C         -3.99415       12.12183       -8.19065
C         -3.65655       13.20305       -8.90727
H         -5.02159       11.76520       -8.20031
C         -4.66163       13.92992       -9.71957
H         -0.61794        8.16145       -4.32371
H         -3.67945        8.16188       -5.15148
C         -4.30476       15.01519      -10.43721
H         -5.65429       13.53214       -9.69033
C         -5.14182       15.91557      -11.33700
H         -3.25865       15.25828      -10.34522
C         -6.50549       15.79200      -11.56017
C         -7.22273       16.83934      -12.41220
C         -6.81397       18.21076      -11.88551
H         -8.32772       16.73764      -12.36285
H         -6.97930       16.76063      -13.48200
C         -4.42164       17.09309      -12.06868
C         -7.39389       14.74229      -10.94085
H         -8.45562       14.85775      -11.24108
H         -7.37510       14.83313       -9.83512
H         -7.08760       13.73504      -11.29101
C         -4.17722       16.65444      -13.54144
H         -5.07247       16.37263      -14.11177
H         -3.51476       15.76160      -13.56285
H         -3.67136       17.46173      -14.11455
C         -3.01344       17.45366      -11.52327
H         -3.07085       17.72759      -10.44766
H         -2.59415       18.32441      -12.07394
H         -2.28113       16.62920      -11.65292
C         -5.27768       18.41243      -11.99936
O         -7.25538       18.35210      -10.55178
H         -7.31131       19.02232      -12.45940
H         -4.98887       19.05737      -11.13895
H         -5.03223       19.02041      -12.89813
H         -6.63920       17.85880       -9.94982
H          2.66488       -2.45193        7.05983
H         -2.62691       13.55345       -8.89243
H         -1.29070        9.95905       -5.84786
H         -2.32645        4.56252       -2.10052
H         -0.96490        0.97015        0.95036
$end

$rem
BASIS = 6-31G
METHOD  = BLYP
JOBTYPE = OPT
$end
--------------------------------------------------------------
 ----------------------------------------------------------------
             Standard Nuclear Orientation (Angstroms)
    I     Atom           X                Y                Z
 ----------------------------------------------------------------
    1      C       4.3285025176    -0.2217140765     0.0770302328
    2      C       5.4645180379     0.4746199655    -0.0606494156
    3      C       6.7802390002    -0.1910783389     0.0364269032
    4      C       7.9170354437     0.5043720483    -0.1009799576
    5      C       9.2340645125    -0.1623453258    -0.0046552732
    6      C      10.3743091194     0.5427418784    -0.1175219113
    7      H       5.4226809044     1.5454204105    -0.2468237585
    8      H       6.8211134337    -1.2620113508     0.2221003121
    9      H       9.2484963921    -1.2254075518     0.2021417592
   10      C      11.7723856956    -0.0123610681     0.0150157184
   11      H      10.2610125977     1.6156490321    -0.2177616313
   12      C      12.1354874372    -1.2864607821    -0.3800136633
   13      C      13.5386033422    -1.8200980690    -0.1540399563
   14      C      14.6060929716    -0.7291829296    -0.1706479668
   15      H      13.8012922469    -2.6155754963    -0.8853921630
   16      H      13.5420771870    -2.3096288260     0.8447330077
   17      C      14.2020321641     0.2994081921     0.8813718117
   18      O      14.7262953855    -0.1482768467    -1.4410814341
   19      H      15.5870030152    -1.1672711179     0.1280848728
   20      C      12.8273296255     0.9769496671     0.5895892825
   21      H      14.9956822582     1.0644961304     1.0303790450
   22      H      14.1370173770    -0.2658823644     1.8399950550
   23      C      11.2453447124    -2.2511232007    -1.1400952425
   24      H      10.2985447383    -1.8339525314    -1.5152491201
   25      H      11.0561964185    -3.1571783169    -0.5272105735
   26      H      11.7682236860    -2.5594370741    -2.0700978134
   27      C      13.0303614850     2.1433057308    -0.4134869232
   28      H      13.3431413913     1.7859768365    -1.4127943790
   29      H      13.8014787809     2.8507139286    -0.0390321114
   30      H      12.1058839930     2.7354667004    -0.5607100882
   31      C      12.3356209148     1.5768873627     1.9286636162
   32      H      12.1592623961     0.7723010852     2.6749564488
   33      H      11.3873505859     2.1404325631     1.8054086127
   34      H      13.0888057263     2.2814149335     2.3441936589
   35      C       3.0120965655     0.4426388175    -0.0203351531
   36      C       1.8768036698    -0.2548349213     0.1176751085
   37      C       0.5596498551     0.4079796525     0.0199885178
   38      C      -0.5748182949    -0.2907858690     0.1583175139
   39      H       0.5155037828     1.4785195801    -0.1671682873
   40      H       1.9202326004    -1.3255162448     0.3043578726
   41      H       4.3707626690    -1.2925217078     0.2632291564
   42      C      -1.8927766744     0.3703794280     0.0603336664
   43      C      -3.0263906457    -0.3297129306     0.1990097676
   44      C      -4.3451500797     0.3298038802     0.1007823944
   45      C      -5.4779332128    -0.3715380388     0.2399288223
   46      H      -5.4305992952    -1.4417596455     0.4281829031
   47      H      -4.3918558285     1.4000526831    -0.0874200696
   48      C      -6.7974711994     0.2865131872     0.1414984293
   49      C      -7.9302869828    -0.4161504681     0.2813085192
   50      H      -6.8440579071     1.3565999790    -0.0473273177
   51      C      -9.2568036274     0.2388802733     0.1830974563
   52      H      -0.5301221981    -1.3613206127     0.3454811148
   53      H      -1.9382313114     1.4407734704    -0.1273236145
   54      C     -10.3875400679    -0.4825101164     0.3287180150
   55      H      -9.2391396994     1.2922645804    -0.0027176905
   56      C     -11.8454949019    -0.0440499839     0.2730758883
   57      H     -10.2017233949    -1.5274379131     0.5171300739
   58      C     -12.2928540142     1.2427332523     0.0109137430
   59      C     -13.7943314497     1.5029267608    -0.1122701154
   60      C     -14.3600634300     0.4558018867    -1.0655574460
   61      H     -14.0150824476     2.5185841778    -0.5040483954
   62      H     -14.3181591955     1.4527279274     0.8536543324
   63      C     -12.9455375621    -1.1263509418     0.5161787213
   64      C     -11.4049417925     2.4290280009    -0.2701904412
   65      H     -11.9860550949     3.3500117306    -0.4819354689
   66      H     -10.7908086380     2.2379152820    -1.1743807972
   67      H     -10.7883033356     2.6582886324     0.6232158093
   68      C     -13.4506661928    -0.9653928828     1.9790917558
   69      H     -13.8557289314     0.0216025450     2.2397255040
   70      H     -12.6123551854    -1.1421197565     2.6879479982
   71      H     -14.2449277108    -1.7094813898     2.2061324802
   72      C     -12.4624142228    -2.5989125734     0.4230975045
   73      H     -12.0236896406    -2.8022783453    -0.5776190033
   74      H     -13.3151194818    -3.2981065095     0.5689354166
   75      H     -11.7198831958    -2.8553068574     1.2077827888
   76      C     -14.1250758369    -0.9782077133    -0.5158148938
   77      O     -13.7794044782     0.6205119146    -2.3420218149
   78      H     -15.4535766571     0.5954336673    -1.2071845249
   79      H     -13.9884238444    -1.6297481250    -1.4082752642
   80      H     -15.0485081025    -1.3626560390    -0.0288392972
   81      H     -12.8676204220     0.2280578827    -2.3391597022
   82      H      15.1900942291    -0.8112972047    -2.0162967836
   83      H      -7.8753095740    -1.4859743448     0.4700233107
   84      H      -2.9803879036    -1.4001036646     0.3866981917
   85      H       2.9691863433     1.5133052838    -0.2070069196
   86      H       7.8739376905     1.5751248787    -0.2870191315
 ----------------------------------------------------------------
 Molecular Point Group                 C1    NOp =  1
 Largest Abelian Subgroup              C1    NOp =  1
 Nuclear Repulsion Energy =  3240.5044759438 hartrees
 There are      140 alpha and      140 beta electrons
 Requested basis set is 6-31G
 There are 210 shells and 438 basis functions

 Total QAlloc Memory Limit   2000 MB
 Mega-Array Size       188 MB
 MEM_STATIC part       192 MB
 A cutoff of  1.0D-11 yielded   6893 shell pairs
 There are     32615 function pairs
 
 -------------------------------------------------------
 OpenMP Integral Computing Module                       
 Release: version 1.0, May 2013, Q-Chem Inc. Pittsburgh 
 -------------------------------------------------------
 Integral Job Info:
 Integral job number is                      11
 Integral operator is                         1
 short-range coefficients                     0
 long-range coefficients              100000000
 Omega coefficients                           0
 if combine SR and LR in K                    0
 Integral screening is                        0
 Integral computing path is                   2
 max size of driver memory is            800000
 size of driver memory is                 45569
 size of scratch memory is              2040132
 max col of scratch BK array                289
 max len of scratch array in speh3           22
 max len of scratch index in speh4            8
 max int batch size is                      520
 min int batch size is                       52
 fixed nKL is                                52
 max L of basis functions is                  1
 order of int derivative is                   0
 number of shells is                        210
 number of basis is                         438
 number of cartesian basis is               438
 number of contracted shell pairs          6893
 number of primitive shell pairs          26144
 maxK2 (contraction) of shell pair           36
 max number of K2 of shell pair               1
 max number of CS2 of shell pair           1229
 max number of PS2 of shell pair           4824
 mem total for path MDJ                  622838
 -------------------------------------------------------
 Smallest overlap matrix eigenvalue = 1.62E-03

 Scale SEOQF with 1.000000e-02/1.000000e-01/1.000000e-01

 Standard Electronic Orientation quadrupole field applied
 Nucleus-field energy     =     0.0000001209 hartrees
 Guess from superposition of atomic densities
 Warning:  Energy on first SCF cycle will be non-variational
 SAD guess density has 280.000001 electrons

 -----------------------------------------------------------------------
  General SCF calculation program by
  Eric Jon Sundstrom, Paul Horn, Yuezhi Mao, Dmitri Zuev, Alec White,
  David Stuck, Shaama M.S., Shane Yost, Joonho Lee, David Small,
  Daniel Levine, Susi Lehtola, Hugh Burton, Evgeny Epifanovsky
 -----------------------------------------------------------------------
 Exchange:  B88      Correlation:  LYP
 Using SG-1 standard quadrature grid
 using 4 threads for integral computing
 -------------------------------------------------------
 OpenMP Integral computing Module                
 Release: version 1.0, May 2013, Q-Chem Inc. Pittsburgh 
 -------------------------------------------------------
 -------------------------------------------------------
 OpenMP BLAS3 based DFT computing Module                
 Release: version 1.0, May 2013, Q-Chem Inc. Pittsburgh 
 -------------------------------------------------------
 A restricted SCF calculation will be
 performed using DIIS
 SCF converges when DIIS error is below 1.0e-08
 ---------------------------------------
  Cycle       Energy         DIIS error
 ---------------------------------------
    1   -1555.6528415729      4.42e-02  
    2   -1548.8220598576      6.19e-03  
    3   -1548.0918656912      8.21e-03  
    4   -1549.8174808184      1.38e-03  
    5   -1549.8532410959      5.43e-04  
    6   -1549.8575081802      3.57e-04  
    7   -1549.8610868231      7.43e-05  
    8   -1549.8612146313      3.09e-05  
    9   -1549.8612369812      1.73e-05  
   10   -1549.8612462308      2.62e-06  
   11   -1549.8612463701      1.49e-06  
   12   -1549.8612464307      4.79e-07  
   13   -1549.8612464368      1.80e-07  
   14   -1549.8612464376      7.93e-08  
   15   -1549.8612464378      1.84e-08  
   16   -1549.8612464378      8.84e-09  Convergence criterion met
 ---------------------------------------
 SCF time:   CPU 340.69s  wall 85.00s 
 SCF   energy in the final basis set =    -1549.8612464378
 Total energy in the final basis set =    -1549.8612464378
 
 --------------------------------------------------------------
 
                    Orbital Energies (a.u.)
 --------------------------------------------------------------
 
 Alpha MOs
 -- Occupied --
-18.788 -18.774  -9.966  -9.962  -9.939  -9.928  -9.928  -9.927
 -9.922  -9.919  -9.917  -9.917  -9.917  -9.917  -9.917  -9.916
 -9.916  -9.916  -9.916  -9.916  -9.916  -9.916  -9.915  -9.915
 -9.915  -9.915  -9.914  -9.914  -9.913  -9.913  -9.912  -9.911
 -9.910  -9.910  -9.908  -9.907  -9.899  -9.890  -0.937  -0.922
 -0.758  -0.754  -0.742  -0.736  -0.728  -0.717  -0.705  -0.701
 -0.698  -0.689  -0.676  -0.665  -0.653  -0.640  -0.625  -0.613
 -0.604  -0.602  -0.602  -0.596  -0.591  -0.557  -0.543  -0.532
 -0.519  -0.508  -0.505  -0.503  -0.498  -0.494  -0.492  -0.485
 -0.482  -0.478  -0.466  -0.444  -0.432  -0.425  -0.423  -0.417
 -0.414  -0.409  -0.406  -0.400  -0.395  -0.392  -0.388  -0.381
 -0.375  -0.371  -0.368  -0.365  -0.363  -0.361  -0.355  -0.353
 -0.353  -0.348  -0.344  -0.343  -0.340  -0.336  -0.334  -0.330
 -0.327  -0.325  -0.323  -0.323  -0.321  -0.318  -0.313  -0.309
 -0.303  -0.303  -0.300  -0.300  -0.297  -0.296  -0.295  -0.291
 -0.287  -0.285  -0.284  -0.282  -0.275  -0.273  -0.269  -0.258
 -0.257  -0.251  -0.239  -0.239  -0.234  -0.216  -0.207  -0.199
 -0.195  -0.178  -0.159  -0.142
 -- Virtual --
 -0.079  -0.058  -0.034  -0.009   0.013   0.027   0.033   0.046
  0.050   0.061   0.062   0.067   0.068   0.072   0.074   0.076
  0.077   0.081   0.086   0.091   0.093   0.096   0.099   0.099
  0.100   0.105   0.112   0.116   0.120   0.120   0.122   0.123
  0.124   0.126   0.128   0.132   0.134   0.136   0.137   0.139
  0.143   0.147   0.148   0.150   0.152   0.156   0.158   0.161
  0.162   0.163   0.168   0.175   0.177   0.182   0.184   0.187
  0.187   0.190   0.193   0.193   0.196   0.201   0.201   0.208
  0.215   0.222   0.222   0.229   0.231   0.232   0.240   0.247
  0.254   0.254   0.258   0.268   0.272   0.280   0.288   0.299
  0.306   0.316   0.329   0.333   0.337   0.345   0.350   0.353
  0.358   0.364   0.375   0.390   0.395   0.396   0.412   0.421
  0.442   0.456   0.481   0.484   0.488   0.490   0.494   0.496
  0.498   0.504   0.506   0.513   0.515   0.517   0.522   0.525
  0.526   0.530   0.531   0.535   0.537   0.544   0.546   0.549
  0.551   0.556   0.559   0.560   0.562   0.566   0.572   0.574
  0.576   0.581   0.585   0.593   0.594   0.597   0.599   0.600
  0.606   0.607   0.608   0.615   0.619   0.621   0.624   0.628
  0.633   0.635   0.638   0.641   0.650   0.650   0.658   0.666
  0.671   0.672   0.676   0.680   0.682   0.684   0.689   0.698
  0.700   0.706   0.711   0.714   0.715   0.722   0.736   0.740
  0.747   0.751   0.763   0.763   0.766   0.772   0.775   0.781
  0.783   0.787   0.790   0.790   0.799   0.807   0.811   0.819
  0.821   0.823   0.826   0.834   0.845   0.848   0.850   0.852
  0.854   0.855   0.858   0.860   0.862   0.864   0.867   0.874
  0.878   0.880   0.883   0.885   0.886   0.889   0.892   0.896
  0.903   0.905   0.909   0.911   0.911   0.914   0.917   0.925
  0.928   0.930   0.935   0.937   0.940   0.947   0.948   0.953
  0.954   0.955   0.960   0.966   0.969   0.977   0.980   0.986
  0.994   0.999   1.008   1.025   1.035   1.041   1.051   1.053
  1.060   1.065   1.069   1.070   1.085   1.099   1.109   1.113
  1.118   1.135   1.137   1.148   1.158   1.159   1.168   1.176
  1.183   1.192   1.199   1.211   1.213   1.223   1.231   1.235
  1.246   1.263   1.267   1.271   1.274   1.294   1.302   1.311
  1.311   1.320   1.320   1.348   1.385   1.405   1.420   1.430
  1.442   1.457   1.469   1.489   1.509   1.516   1.524   1.551
  1.552   1.623   1.627   1.633   1.677   1.689   1.876   1.891
  1.941   2.028
 --------------------------------------------------------------
 
          Ground-State Mulliken Net Atomic Charges

     Atom                 Charge (a.u.)
  ----------------------------------------
      1 C                    -0.093530
      2 C                    -0.091513
      3 C                    -0.095387
      4 C                    -0.092075
      5 C                    -0.077028
      6 C                    -0.153904
      7 H                     0.091590
      8 H                     0.089852
      9 H                     0.102523
     10 C                     0.112172
     11 H                     0.097566
     12 C                     0.101359
     13 C                    -0.282017
     14 C                     0.094440
     15 H                     0.094574
     16 H                     0.122348
     17 C                    -0.206214
     18 O                    -0.541549
     19 H                     0.084023
     20 C                    -0.001585
     21 H                     0.108189
     22 H                     0.106505
     23 C                    -0.443026
     24 H                     0.141265
     25 H                     0.123750
     26 H                     0.121208
     27 C                    -0.366065
     28 H                     0.159293
     29 H                     0.104372
     30 H                     0.103396
     31 C                    -0.356993
     32 H                     0.110988
     33 H                     0.113139
     34 H                     0.109292
     35 C                    -0.091851
     36 C                    -0.093342
     37 C                    -0.091891
     38 C                    -0.093140
     39 H                     0.091705
     40 H                     0.091100
     41 H                     0.090670
     42 C                    -0.091963
     43 C                    -0.093105
     44 C                    -0.092413
     45 C                    -0.091809
     46 H                     0.091700
     47 H                     0.091760
     48 C                    -0.094340
     49 C                    -0.094293
     50 H                     0.091412
     51 C                    -0.067947
     52 H                     0.091359
     53 H                     0.091771
     54 C                    -0.160970
     55 H                     0.095134
     56 C                     0.107198
     57 H                     0.090508
     58 C                     0.041373
     59 C                    -0.251312
     60 C                     0.097991
     61 H                     0.119370
     62 H                     0.118949
     63 C                    -0.006420
     64 C                    -0.437615
     65 H                     0.124103
     66 H                     0.140810
     67 H                     0.141797
     68 C                    -0.364385
     69 H                     0.124846
     70 H                     0.119975
     71 H                     0.110385
     72 C                    -0.370162
     73 H                     0.114842
     74 H                     0.116151
     75 H                     0.118548
     76 C                    -0.240183
     77 O                    -0.558292
     78 H                     0.115802
     79 H                     0.119853
     80 H                     0.107567
     81 H                     0.335425
     82 H                     0.338260
     83 H                     0.089879
     84 H                     0.091515
     85 H                     0.091600
     86 H                     0.091115
  ----------------------------------------
  Sum of atomic charges =    -0.000000

 -----------------------------------------------------------------
                    Cartesian Multipole Moments
 -----------------------------------------------------------------
    Charge (ESU x 10^10)
                -0.0000
    Dipole Moment (Debye)
         X       2.5204      Y      -2.2053      Z       1.4756
       Tot       3.6597
    Quadrupole Moments (Debye-Ang)
        XX    -203.4093     XY     -18.3421     YY    -218.0840
        XZ     -23.5032     YZ       2.0185     ZZ    -245.5850
    Octopole Moments (Debye-Ang^2)
       XXX    1006.5611    XXY    -499.0016    XYY      12.2413
       YYY       5.1748    XXZ     325.7839    XYZ      14.4359
       YYZ      -5.2705    XZZ     111.3654    YZZ     -16.3751
       ZZZ     -11.5099
    Hexadecapole Moments (Debye-Ang^3)
      XXXX -145098.3296   XXXY   -4217.7988   XXYY  -25270.8318
      XYYY    -140.6523   YYYY   -2267.5830   XXXZ   -5992.2440
      XXYZ    1047.2453   XYYZ     -63.5919   YYYZ     -12.0754
      XXZZ  -27427.0520   XYZZ     -19.0047   YYZZ    -584.6875
      XZZZ    -311.4800   YZZZ      26.2432   ZZZZ   -1235.9462
 -----------------------------------------------------------------
 Calculating analytic gradient of the SCF energy
 Gradient of SCF Energy
            1           2           3           4           5           6
    1   0.0438121  -0.0434695   0.0420735  -0.0423583   0.0324264  -0.0397990
    2  -0.0157425   0.0155314  -0.0158522   0.0132288  -0.0158038   0.0091381
    3   0.0021572  -0.0022004   0.0020863  -0.0011705   0.0004095  -0.0040747
            7           8           9          10          11          12
    1  -0.0034992   0.0035059   0.0030934   0.0086428  -0.0043337   0.0096988
    2  -0.0051210   0.0051723   0.0055213   0.0018245  -0.0081451  -0.0137186
    3   0.0009369  -0.0008782  -0.0017004   0.0043097   0.0028958   0.0060161
           13          14          15          16          17          18
    1   0.0020752  -0.0067872   0.0035371  -0.0043502  -0.0034201  -0.0107406
    2   0.0142846   0.0178928  -0.0022850   0.0027955  -0.0018165  -0.0152842
    3  -0.0044389  -0.0415178  -0.0006719   0.0017597  -0.0066146   0.0402737
           19          20          21          22          23          24
    1   0.0016125   0.0000966   0.0052090  -0.0003004  -0.0004610   0.0002356
    2   0.0011675  -0.0050045   0.0014386  -0.0036656   0.0015119  -0.0004015
    3  -0.0022041  -0.0010705   0.0033808   0.0029866   0.0085054  -0.0077260
           25          26          27          28          29          30
    1   0.0031595  -0.0033283  -0.0011661  -0.0012181   0.0020050  -0.0005577
    2   0.0004712   0.0052898  -0.0113839   0.0006515   0.0030824   0.0013719
    3   0.0050323  -0.0042420   0.0129788  -0.0056781   0.0011041  -0.0024221
           31          32          33          34          35          36
    1   0.0065429  -0.0002450  -0.0034307   0.0022573  -0.0440566   0.0442121
    2  -0.0037417  -0.0041324   0.0023223   0.0032019   0.0155870  -0.0155916
    3  -0.0114872   0.0018892  -0.0011389   0.0013659  -0.0020994   0.0021222
           37          38          39          40          41          42
    1  -0.0442596   0.0443145  -0.0034826   0.0034945   0.0034992  -0.0442481
    2   0.0155272  -0.0154909  -0.0051224   0.0050871   0.0050915   0.0154834
    3  -0.0021174   0.0021231   0.0009336  -0.0009290  -0.0009280  -0.0021212
           43          44          45          46          47          48
    1   0.0442162  -0.0439660   0.0439362   0.0034751  -0.0034604  -0.0414739
    2  -0.0153842   0.0154256  -0.0151408   0.0050950  -0.0051271   0.0152539
    3   0.0021233  -0.0021290   0.0020761  -0.0009361   0.0009376  -0.0021255
           49          50          51          52          53          54
    1   0.0444029  -0.0034060  -0.0342662   0.0034845  -0.0034728   0.0475725
    2  -0.0106182  -0.0053015   0.0161565   0.0050954  -0.0051266  -0.0093477
    3   0.0014404   0.0009719  -0.0026999  -0.0009324   0.0009370  -0.0003329
           55          56          57          58          59          60
    1  -0.0002019  -0.0221724   0.0060141   0.0023467   0.0005195   0.0274216
    2  -0.0129058   0.0052543   0.0115070   0.0010371  -0.0090054   0.0129878
    3   0.0021310   0.0067450  -0.0019939  -0.0035963  -0.0049763  -0.0243305
           61          62          63          64          65          66
    1  -0.0054208   0.0012044  -0.0002309   0.0001392   0.0004392  -0.0059287
    2   0.0051647   0.0016280   0.0038404  -0.0082121   0.0057616  -0.0028830
    3   0.0004059  -0.0049935  -0.0039850  -0.0008984  -0.0009546  -0.0062324
           67          68          69          70          71          72
    1  -0.0064381   0.0034647   0.0006985   0.0030479  -0.0029759  -0.0072222
    2   0.0002410   0.0032023  -0.0029659   0.0007189  -0.0016067   0.0079079
    3   0.0069265  -0.0159531   0.0039938   0.0033262   0.0010478   0.0049469
           73          74          75          76          77          78
    1   0.0002572  -0.0023165   0.0017690   0.0088553  -0.0127630  -0.0050735
    2   0.0016180  -0.0049048  -0.0014283   0.0040403  -0.0013162  -0.0025915
    3  -0.0049940   0.0020621   0.0042257   0.0000775   0.0397828   0.0015890
           79          80          81          82          83          84
    1  -0.0034463  -0.0024473   0.0006705   0.0027884   0.0034337   0.0034755
    2  -0.0011975  -0.0029468  -0.0033015  -0.0052033   0.0055873   0.0050993
    3  -0.0048390   0.0005881  -0.0000929   0.0047714  -0.0010293  -0.0009339
           85          86
    1  -0.0034945  -0.0034477
    2  -0.0051304  -0.0053486
    3   0.0009340   0.0010833
 Max gradient component =       4.757E-02
 RMS gradient           =       1.372E-02
 Gradient time:  CPU 42.68 s  wall 10.87 s
 Geometry Optimization Parameters
   NAtoms,    NIC,     NZ,  NCons,   NDum,   NFix, NCnnct, MaxDiis
       86     627       0       0       0       0       0       0


** GEOMETRY OPTIMIZATION IN DELOCALIZED INTERNAL COORDINATES **
   Searching for a Minimum

   Optimization Cycle:   1

                       Coordinates (Angstroms)
     ATOM                X               Y               Z
      1  C         4.3285025176   -0.2217140765    0.0770302328
      2  C         5.4645180379    0.4746199655   -0.0606494156
      3  C         6.7802390002   -0.1910783389    0.0364269032
      4  C         7.9170354437    0.5043720483   -0.1009799576
      5  C         9.2340645125   -0.1623453258   -0.0046552732
      6  C        10.3743091194    0.5427418784   -0.1175219113
      7  H         5.4226809044    1.5454204105   -0.2468237585
      8  H         6.8211134337   -1.2620113508    0.2221003121
      9  H         9.2484963921   -1.2254075518    0.2021417592
     10  C        11.7723856956   -0.0123610681    0.0150157184
     11  H        10.2610125977    1.6156490321   -0.2177616313
     12  C        12.1354874372   -1.2864607821   -0.3800136633
     13  C        13.5386033422   -1.8200980690   -0.1540399563
     14  C        14.6060929716   -0.7291829296   -0.1706479668
     15  H        13.8012922469   -2.6155754963   -0.8853921630
     16  H        13.5420771870   -2.3096288260    0.8447330077
     17  C        14.2020321641    0.2994081921    0.8813718117
     18  O        14.7262953855   -0.1482768467   -1.4410814341
     19  H        15.5870030152   -1.1672711179    0.1280848728
     20  C        12.8273296255    0.9769496671    0.5895892825
     21  H        14.9956822582    1.0644961304    1.0303790450
     22  H        14.1370173770   -0.2658823644    1.8399950550
     23  C        11.2453447124   -2.2511232007   -1.1400952425
     24  H        10.2985447383   -1.8339525314   -1.5152491201
     25  H        11.0561964185   -3.1571783169   -0.5272105735
     26  H        11.7682236860   -2.5594370741   -2.0700978134
     27  C        13.0303614850    2.1433057308   -0.4134869232
     28  H        13.3431413913    1.7859768365   -1.4127943790
     29  H        13.8014787809    2.8507139286   -0.0390321114
     30  H        12.1058839930    2.7354667004   -0.5607100882
     31  C        12.3356209148    1.5768873627    1.9286636162
     32  H        12.1592623961    0.7723010852    2.6749564488
     33  H        11.3873505859    2.1404325631    1.8054086127
     34  H        13.0888057263    2.2814149335    2.3441936589
     35  C         3.0120965655    0.4426388175   -0.0203351531
     36  C         1.8768036698   -0.2548349213    0.1176751085
     37  C         0.5596498551    0.4079796525    0.0199885178
     38  C        -0.5748182949   -0.2907858690    0.1583175139
     39  H         0.5155037828    1.4785195801   -0.1671682873
     40  H         1.9202326004   -1.3255162448    0.3043578726
     41  H         4.3707626690   -1.2925217078    0.2632291564
     42  C        -1.8927766744    0.3703794280    0.0603336664
     43  C        -3.0263906457   -0.3297129306    0.1990097676
     44  C        -4.3451500797    0.3298038802    0.1007823944
     45  C        -5.4779332128   -0.3715380388    0.2399288223
     46  H        -5.4305992952   -1.4417596455    0.4281829031
     47  H        -4.3918558285    1.4000526831   -0.0874200696
     48  C        -6.7974711994    0.2865131872    0.1414984293
     49  C        -7.9302869828   -0.4161504681    0.2813085192
     50  H        -6.8440579071    1.3565999790   -0.0473273177
     51  C        -9.2568036274    0.2388802733    0.1830974563
     52  H        -0.5301221981   -1.3613206127    0.3454811148
     53  H        -1.9382313114    1.4407734704   -0.1273236145
     54  C       -10.3875400679   -0.4825101164    0.3287180150
     55  H        -9.2391396994    1.2922645804   -0.0027176905
     56  C       -11.8454949019   -0.0440499839    0.2730758883
     57  H       -10.2017233949   -1.5274379131    0.5171300739
     58  C       -12.2928540142    1.2427332523    0.0109137430
     59  C       -13.7943314497    1.5029267608   -0.1122701154
     60  C       -14.3600634300    0.4558018867   -1.0655574460
     61  H       -14.0150824476    2.5185841778   -0.5040483954
     62  H       -14.3181591955    1.4527279274    0.8536543324
     63  C       -12.9455375621   -1.1263509418    0.5161787213
     64  C       -11.4049417925    2.4290280009   -0.2701904412
     65  H       -11.9860550949    3.3500117306   -0.4819354689
     66  H       -10.7908086380    2.2379152820   -1.1743807972
     67  H       -10.7883033356    2.6582886324    0.6232158093
     68  C       -13.4506661928   -0.9653928828    1.9790917558
     69  H       -13.8557289314    0.0216025450    2.2397255040
     70  H       -12.6123551854   -1.1421197565    2.6879479982
     71  H       -14.2449277108   -1.7094813898    2.2061324802
     72  C       -12.4624142228   -2.5989125734    0.4230975045
     73  H       -12.0236896406   -2.8022783453   -0.5776190033
     74  H       -13.3151194818   -3.2981065095    0.5689354166
     75  H       -11.7198831958   -2.8553068574    1.2077827888
     76  C       -14.1250758369   -0.9782077133   -0.5158148938
     77  O       -13.7794044782    0.6205119146   -2.3420218149
     78  H       -15.4535766571    0.5954336673   -1.2071845249
     79  H       -13.9884238444   -1.6297481250   -1.4082752642
     80  H       -15.0485081025   -1.3626560390   -0.0288392972
     81  H       -12.8676204220    0.2280578827   -2.3391597022
     82  H        15.1900942291   -0.8112972047   -2.0162967836
     83  H        -7.8753095740   -1.4859743448    0.4700233107
     84  H        -2.9803879036   -1.4001036646    0.3866981917
     85  H         2.9691863433    1.5133052838   -0.2070069196
     86  H         7.8739376905    1.5751248787   -0.2870191315
   Point Group: c1    Number of degrees of freedom:   252


   Energy is  -1549.861246438


 Attempting to Generate Delocalized Internal Coordinates

252 Hessian modes will be used to form the next step
  Hessian Eigenvalues:
     0.002000    0.002223    0.002340    0.002820    0.002893    0.003645
     0.006073    0.006958    0.007551    0.007846    0.008092    0.008398
     0.009480    0.010081    0.010269    0.011120    0.011469    0.011916
     0.012115    0.012121    0.012121    0.012122    0.012122    0.012124
     0.013316    0.014062    0.014080    0.015367    0.017264    0.018755
     0.020881    0.021045    0.021119    0.021178    0.021264    0.021303
     0.021304    0.021308    0.021308    0.021308    0.021308    0.021309
     0.021309    0.021309    0.021310    0.021310    0.026603    0.029043
     0.029135    0.029632    0.030297    0.030381    0.030401    0.030401
     0.030402    0.030403    0.030405    0.033062    0.033163    0.043181
     0.045350    0.046456    0.048403    0.048613    0.048908    0.049442
     0.052196    0.052422    0.053561    0.053617    0.053973    0.054141
     0.054933    0.054978    0.055157    0.055283    0.055713    0.062443
     0.064732    0.065394    0.066072    0.066795    0.069255    0.070849
     0.072737    0.073401    0.075196    0.083794    0.085512    0.087971
     0.088251    0.088709    0.095068    0.099446    0.099633    0.130674
     0.133585    0.142164    0.149680    0.159568    0.159904    0.159999
     0.159999    0.160000    0.160000    0.160000    0.160000    0.160000
     0.160000    0.160000    0.160000    0.160000    0.160000    0.160000
     0.160000    0.160000    0.160000    0.160000    0.160000    0.160000
     0.160000    0.160000    0.160000    0.160000    0.160000    0.160000
     0.160000    0.160000    0.160000    0.160000    0.160000    0.160000
     0.160000    0.160000    0.160000    0.160000    0.160000    0.163692
     0.165956    0.177198    0.186809    0.216327    0.220000    0.220000
     0.220000    0.220000    0.220000    0.220000    0.220000    0.220000
     0.220000    0.220000    0.220000    0.220000    0.220000    0.220000
     0.220000    0.220000    0.220024    0.220150    0.222360    0.248751
     0.249353    0.249800    0.249976    0.251357    0.258447    0.262536
     0.267973    0.268015    0.271462    0.274328    0.275072    0.278629
     0.285286    0.285477    0.288591    0.291951    0.299155    0.300343
     0.306779    0.313430    0.315309    0.320707    0.320989    0.322425
     0.323360    0.323468    0.323560    0.323583    0.323834    0.323924
     0.324002    0.324117    0.324426    0.324467    0.324494    0.324497
     0.325200    0.325398    0.325656    0.325886    0.326052    0.326409
     0.326536    0.326650    0.328453    0.329837    0.336218    0.336859
     0.338757    0.342639    0.346488    0.348224    0.348275    0.348279
     0.348281    0.348288    0.348302    0.350762    0.350796    0.350801
     0.350804    0.350808    0.350818    0.350824    0.350829    0.350830
     0.350834    0.350834    0.350839    0.350858    0.350895    0.355725
     0.356241    0.362474    0.372562    0.436932    0.452733    0.456989
     0.470048    0.489837    0.490020    0.552051    0.560163    0.571252
     0.572687    0.573020    0.573021    0.573032    0.573049    0.573081

 Minimum Search - Taking Simple RFO Step
 Searching for Lamda that Minimizes Along All modes
 Value Taken    Lamda =  -0.06960155
 Calculated Step too Large.  Step scaled by  0.675024
 Step Taken.  Stepsize is  0.300000

                             Maximum     Tolerance    Cnvgd?
         Gradient           0.077934      0.000300      NO
         Displacement       0.119808      0.001200      NO
         Energy change     *********      0.000001      NO


 New Cartesian Coordinates Obtained by Inverse Iteration

 Displacement from previous Coordinates is:  2.385344
 ----------------------------------------------------------------
             Standard Nuclear Orientation (Angstroms)
    I     Atom           X                Y                Z
 ----------------------------------------------------------------
    1      C       4.3683308209    -0.2955245939     0.1068748409
    2      C       5.5381063413     0.3883786067    -0.0453983452
    3      C       6.8544370525    -0.2520699918     0.0506739599
    4      C       8.0220757211     0.4336420867    -0.1050647737
    5      C       9.3413407511    -0.2060665223    -0.0062020455
    6      C      10.5011841985     0.4980931816    -0.1409582750
    7      H       5.5101207881     1.4608961727    -0.2486947942
    8      H       6.8832407431    -1.3242322026     0.2559764168
    9      H       9.3515743802    -1.2690184824     0.2250803585
   10      C      11.8990248244    -0.0195090903    -0.0110541225
   11      H      10.3949732888     1.5761711913    -0.2628680873
   12      C      12.3016351696    -1.2822162570    -0.4008013143
   13      C      13.7256758247    -1.7761270876    -0.1576932106
   14      C      14.7649631928    -0.6401685342    -0.1653534434
   15      H      14.0115156645    -2.5610448777    -0.8877627696
   16      H      13.7471884279    -2.2697572564     0.8384907410
   17      C      14.3093608022     0.3912757400     0.8744688259
   18      O      14.8844279329    -0.0323577612    -1.4612024248
   19      H      15.7543597729    -1.0473799354     0.1474851660
   20      C      12.9111827472     1.0217688201     0.5646466405
   21      H      15.0678444169     1.1856681229     1.0182448650
   22      H      14.2519569864    -0.1592162236     1.8374657465
   23      C      11.4512688271    -2.2829545790    -1.1691023711
   24      H      10.4966915872    -1.8869854478    -1.5416421394
   25      H      11.2687651695    -3.1957606445    -0.5673588637
   26      H      11.9997361067    -2.5905576350    -2.0839240954
   27      C      13.0798715409     2.1907076254    -0.4556120376
   28      H      13.4198327431     1.8278023570    -1.4393883788
   29      H      13.8190149682     2.9270853210    -0.0825339504
   30      H      12.1339655081     2.7422151330    -0.6139255163
   31      C      12.3788475537     1.6164514891     1.9031987859
   32      H      12.2247884225     0.8185443045     2.6557887600
   33      H      11.4146067641     2.1414756029     1.7686770548
   34      H      13.1000582796     2.3487075146     2.3176442200
   35      C       3.0536500340     0.3477384096     0.0117763651
   36      C       1.8821740580    -0.3344547782     0.1602067131
   37      C       0.5690021575     0.3116143328     0.0651878224
   38      C      -0.6040599323    -0.3688978182     0.2091532122
   39      H       0.5457703422     1.3855678445    -0.1309969114
   40      H       1.9064834487    -1.4081467447     0.3576948163
   41      H       4.3950337956    -1.3684654163     0.3081144775
   42      C      -1.9157736112     0.2799396279     0.1132222835
   43      C      -3.0904468886    -0.3987775170     0.2521704937
   44      C      -4.4006505214     0.2529664719     0.1543859356
   45      C      -5.5769873493    -0.4236966160     0.2878220582
   46      H      -5.5605900806    -1.4992312007     0.4757390640
   47      H      -4.4186803834     1.3280861386    -0.0358671505
   48      C      -6.8854566855     0.2314824347     0.1871271954
   49      C      -8.0633984507    -0.4428950613     0.3146171773
   50      H      -6.8993831995     1.3071958676    -0.0006519405
   51      C      -9.3727507764     0.2197219687     0.2095863782
   52      H      -0.5821820392    -1.4432735225     0.4031389271
   53      H      -1.9365298764     1.3545070490    -0.0798395543
   54      C     -10.5410079239    -0.4782013993     0.3369220819
   55      H      -9.3325014761     1.2838510910     0.0273967924
   56      C     -11.9632285294    -0.0173421607     0.2647401760
   57      H     -10.4082919412    -1.5404067598     0.5232892743
   58      C     -12.3792643641     1.2784558634     0.0099429651
   59      C     -13.8803239526     1.5551554374    -0.1324615190
   60      C     -14.4695523200     0.5148876158    -1.1046107819
   61      H     -14.0700487856     2.5731938846    -0.5198171232
   62      H     -14.4131843366     1.5049755073     0.8335726929
   63      C     -13.0799754448    -1.0901020485     0.4967046258
   64      C     -11.4516026437     2.4535227765    -0.2420958180
   65      H     -12.0186802948     3.3784925977    -0.4521998237
   66      H     -10.8111353216     2.2720372420    -1.1272578391
   67      H     -10.8299701534     2.6671893926     0.6494264111
   68      C     -13.6047985228    -0.9242995434     1.9617116274
   69      H     -14.0026082667     0.0733850665     2.1990604281
   70      H     -12.7807572449    -1.1080832379     2.6793317350
   71      H     -14.4073610808    -1.6579996085     2.1779626809
   72      C     -12.5967771622    -2.5679505072     0.3894002305
   73      H     -12.1496847394    -2.7725369367    -0.6030108835
   74      H     -13.4555975707    -3.2551951233     0.5198625241
   75      H     -11.8633333870    -2.8339743958     1.1736770208
   76      C     -14.2556925955    -0.9237966101    -0.5440538865
   77      O     -13.8823651875     0.6744752996    -2.4110112705
   78      H     -15.5546238157     0.6788653871    -1.2532078992
   79      H     -14.1137846204    -1.5802491061    -1.4273290221
   80      H     -15.1839372702    -1.2926949585    -0.0610797026
   81      H     -12.9735879408     0.2781780662    -2.4147649836
   82      H      15.3674718745    -0.6524581011    -2.0654971422
   83      H      -8.0460091035    -1.5193210938     0.4999558812
   84      H      -3.0711587246    -1.4737769162     0.4429649744
   85      H       3.0280503358     1.4210104699    -0.1878193343
   86      H       7.9902603880     1.5053509453    -0.3130202795
 ----------------------------------------------------------------
 Molecular Point Group                 C1    NOp =  1
 Largest Abelian Subgroup              C1    NOp =  1
 Nuclear Repulsion Energy =  3219.7327333832 hartrees
 There are      140 alpha and      140 beta electrons
 Applying Cartesian multipole field
    Component          Value
    ---------          -----
     (2,0,0)        1.00000E-12
     (0,2,0)        2.00000E-11
     (0,0,2)       -3.00000E-11
 Nucleus-field energy     =     0.0000001228 hartrees
 Requested basis set is 6-31G
 There are 210 shells and 438 basis functions
 A cutoff of  1.0D-11 yielded   6857 shell pairs
 There are     32285 function pairs
 Smallest overlap matrix eigenvalue = 1.67E-03
 Guess MOs from SCF MO coefficient file

 -----------------------------------------------------------------------
  General SCF calculation program by
  Eric Jon Sundstrom, Paul Horn, Yuezhi Mao, Dmitri Zuev, Alec White,
  David Stuck, Shaama M.S., Shane Yost, Joonho Lee, David Small,
  Daniel Levine, Susi Lehtola, Hugh Burton, Evgeny Epifanovsky
 -----------------------------------------------------------------------
 Exchange:  B88      Correlation:  LYP
 Using SG-1 standard quadrature grid
 using 4 threads for integral computing
 -------------------------------------------------------
 OpenMP Integral computing Module                
 Release: version 1.0, May 2013, Q-Chem Inc. Pittsburgh 
 -------------------------------------------------------
 -------------------------------------------------------
 OpenMP BLAS3 based DFT computing Module                
 Release: version 1.0, May 2013, Q-Chem Inc. Pittsburgh 
 -------------------------------------------------------
 A restricted SCF calculation will be
 performed using DIIS
 SCF converges when DIIS error is below 1.0e-08
 ---------------------------------------
  Cycle       Energy         DIIS error
 ---------------------------------------
    1   -1549.8854460573      4.49e-04  
    2   -1549.8950890851      1.17e-04  
    3   -1549.8947957148      1.57e-04  
    4   -1549.8953646175      5.70e-05  
    5   -1549.8954561277      1.29e-05  
    6   -1549.8954596073      7.43e-06  
    7   -1549.8954612292      2.55e-06  
    8   -1549.8954614269      6.95e-07  
    9   -1549.8954614427      2.35e-07  
   10   -1549.8954614440      8.95e-08  
   11   -1549.8954614442      3.58e-08  
   12   -1549.8954614443      1.53e-08  
   13   -1549.8954614443      3.55e-09  Convergence criterion met
 ---------------------------------------
 SCF time:   CPU 282.10s  wall 71.00s 
 SCF   energy in the final basis set =    -1549.8954614443
 Total energy in the final basis set =    -1549.8954614443
 
 --------------------------------------------------------------
 
                    Orbital Energies (a.u.)
 --------------------------------------------------------------
 
 Alpha MOs
 -- Occupied --
-18.787 -18.775  -9.970  -9.965  -9.941  -9.931  -9.929  -9.926
 -9.925  -9.921  -9.921  -9.921  -9.921  -9.921  -9.920  -9.920
 -9.920  -9.920  -9.920  -9.920  -9.920  -9.919  -9.919  -9.919
 -9.919  -9.919  -9.918  -9.917  -9.916  -9.915  -9.915  -9.914
 -9.912  -9.910  -9.909  -9.908  -9.900  -9.890  -0.924  -0.912
 -0.758  -0.753  -0.738  -0.732  -0.724  -0.714  -0.703  -0.699
 -0.697  -0.687  -0.675  -0.664  -0.652  -0.638  -0.623  -0.614
 -0.605  -0.603  -0.602  -0.597  -0.592  -0.563  -0.547  -0.534
 -0.521  -0.510  -0.503  -0.501  -0.497  -0.495  -0.491  -0.485
 -0.482  -0.478  -0.462  -0.443  -0.431  -0.424  -0.422  -0.415
 -0.414  -0.409  -0.404  -0.399  -0.394  -0.390  -0.387  -0.382
 -0.375  -0.371  -0.368  -0.365  -0.363  -0.361  -0.355  -0.354
 -0.353  -0.348  -0.345  -0.343  -0.341  -0.338  -0.335  -0.330
 -0.327  -0.326  -0.323  -0.321  -0.318  -0.315  -0.311  -0.307
 -0.303  -0.302  -0.301  -0.300  -0.299  -0.297  -0.294  -0.292
 -0.291  -0.286  -0.285  -0.283  -0.276  -0.274  -0.268  -0.259
 -0.258  -0.251  -0.242  -0.241  -0.235  -0.217  -0.207  -0.199
 -0.196  -0.179  -0.159  -0.140
 -- Virtual --
 -0.087  -0.063  -0.038  -0.013   0.010   0.028   0.031   0.045
  0.049   0.060   0.063   0.067   0.068   0.072   0.075   0.077
  0.078   0.081   0.086   0.090   0.093   0.096   0.098   0.098
  0.100   0.104   0.110   0.116   0.120   0.120   0.121   0.123
  0.124   0.127   0.129   0.133   0.134   0.136   0.136   0.140
  0.142   0.147   0.148   0.149   0.152   0.155   0.157   0.159
  0.161   0.163   0.167   0.172   0.175   0.177   0.181   0.184
  0.184   0.188   0.188   0.192   0.193   0.198   0.200   0.204
  0.213   0.217   0.218   0.224   0.225   0.227   0.235   0.243
  0.249   0.251   0.253   0.263   0.265   0.276   0.284   0.304
  0.307   0.313   0.332   0.333   0.338   0.347   0.353   0.355
  0.358   0.364   0.373   0.379   0.381   0.384   0.400   0.414
  0.438   0.448   0.478   0.484   0.485   0.489   0.493   0.493
  0.495   0.500   0.505   0.510   0.511   0.515   0.520   0.522
  0.526   0.527   0.530   0.533   0.535   0.540   0.545   0.546
  0.551   0.553   0.555   0.557   0.558   0.561   0.570   0.572
  0.574   0.577   0.584   0.590   0.592   0.596   0.596   0.598
  0.602   0.603   0.606   0.609   0.615   0.616   0.620   0.621
  0.625   0.630   0.633   0.634   0.638   0.642   0.648   0.651
  0.658   0.667   0.669   0.672   0.678   0.681   0.686   0.694
  0.698   0.702   0.709   0.711   0.713   0.718   0.737   0.737
  0.749   0.751   0.761   0.763   0.766   0.771   0.774   0.780
  0.780   0.787   0.790   0.791   0.795   0.806   0.807   0.815
  0.821   0.822   0.824   0.830   0.840   0.844   0.849   0.850
  0.852   0.853   0.857   0.858   0.861   0.864   0.867   0.873
  0.877   0.880   0.883   0.884   0.885   0.886   0.893   0.898
  0.900   0.905   0.910   0.911   0.911   0.914   0.918   0.923
  0.928   0.931   0.935   0.936   0.941   0.946   0.947   0.954
  0.955   0.957   0.960   0.965   0.968   0.977   0.980   0.982
  0.995   0.999   1.007   1.022   1.031   1.033   1.039   1.040
  1.049   1.057   1.062   1.065   1.076   1.094   1.106   1.107
  1.114   1.123   1.127   1.136   1.145   1.151   1.169   1.173
  1.180   1.193   1.196   1.204   1.214   1.216   1.224   1.230
  1.242   1.254   1.262   1.267   1.274   1.291   1.303   1.306
  1.313   1.317   1.319   1.342   1.381   1.402   1.413   1.431
  1.436   1.449   1.458   1.476   1.494   1.503   1.509   1.541
  1.552   1.608   1.616   1.627   1.664   1.684   1.857   1.867
  1.913   2.027
 --------------------------------------------------------------
 
          Ground-State Mulliken Net Atomic Charges

     Atom                 Charge (a.u.)
  ----------------------------------------
      1 C                    -0.094013
      2 C                    -0.092659
      3 C                    -0.095635
      4 C                    -0.094430
      5 C                    -0.074125
      6 C                    -0.158019
      7 H                     0.091444
      8 H                     0.089716
      9 H                     0.099814
     10 C                     0.108117
     11 H                     0.098531
     12 C                     0.105035
     13 C                    -0.283572
     14 C                     0.097713
     15 H                     0.097302
     16 H                     0.123413
     17 C                    -0.208031
     18 O                    -0.551517
     19 H                     0.087572
     20 C                     0.004180
     21 H                     0.110200
     22 H                     0.107914
     23 C                    -0.442935
     24 H                     0.141253
     25 H                     0.125260
     26 H                     0.122625
     27 C                    -0.367890
     28 H                     0.161510
     29 H                     0.105617
     30 H                     0.104058
     31 C                    -0.359772
     32 H                     0.112388
     33 H                     0.114822
     34 H                     0.110372
     35 C                    -0.093141
     36 C                    -0.093678
     37 C                    -0.093249
     38 C                    -0.093436
     39 H                     0.091651
     40 H                     0.091105
     41 H                     0.090646
     42 C                    -0.093415
     43 C                    -0.093322
     44 C                    -0.094216
     45 C                    -0.091825
     46 H                     0.091214
     47 H                     0.091418
     48 C                    -0.095751
     49 C                    -0.095901
     50 H                     0.090647
     51 C                    -0.068476
     52 H                     0.091329
     53 H                     0.091626
     54 C                    -0.161871
     55 H                     0.094953
     56 C                     0.103581
     57 H                     0.090240
     58 C                     0.051877
     59 C                    -0.259121
     60 C                     0.100700
     61 H                     0.119415
     62 H                     0.120075
     63 C                    -0.000850
     64 C                    -0.439429
     65 H                     0.123590
     66 H                     0.142355
     67 H                     0.143038
     68 C                    -0.366358
     69 H                     0.125176
     70 H                     0.121084
     71 H                     0.111702
     72 C                    -0.375419
     73 H                     0.117573
     74 H                     0.116580
     75 H                     0.121102
     76 C                    -0.241737
     77 O                    -0.562541
     78 H                     0.118557
     79 H                     0.121264
     80 H                     0.108997
     81 H                     0.334751
     82 H                     0.337784
     83 H                     0.089454
     84 H                     0.091381
     85 H                     0.091573
     86 H                     0.091041
  ----------------------------------------
  Sum of atomic charges =    -0.000000

 -----------------------------------------------------------------
                    Cartesian Multipole Moments
 -----------------------------------------------------------------
    Charge (ESU x 10^10)
                -0.0000
    Dipole Moment (Debye)
         X       2.7381      Y      -2.2322      Z       1.5440
       Tot       3.8553
    Quadrupole Moments (Debye-Ang)
        XX    -191.1330     XY     -17.3691     YY    -218.7488
        XZ     -24.1299     YZ       2.1504     ZZ    -245.8998
    Octopole Moments (Debye-Ang^2)
       XXX    1070.5271    XXY    -513.1320    XYY       9.5331
       YYY       5.9968    XXZ     343.5614    XYZ      11.2727
       YYZ      -4.1611    XZZ     120.8015    YZZ     -15.4675
       ZZZ     -13.0104
    Hexadecapole Moments (Debye-Ang^3)
      XXXX -144908.3757   XXXY   -4091.7774   XXYY  -25802.8635
      XYYY    -125.8982   YYYY   -2271.6100   XXXZ   -6267.1987
      XXYZ    1091.2862   XYYZ     -47.9593   YYYZ      -9.4095
      XXZZ  -27948.7639   XYZZ       5.4195   YYZZ    -591.2411
      XZZZ    -301.6643   YZZZ      30.2778   ZZZZ   -1254.8311
 -----------------------------------------------------------------
 Calculating analytic gradient of the SCF energy
 Gradient of SCF Energy
            1           2           3           4           5           6
    1   0.0255877  -0.0250417   0.0241908  -0.0228826   0.0192443  -0.0192587
    2  -0.0124736   0.0122900  -0.0126135   0.0110012  -0.0119192   0.0080986
    3   0.0018864  -0.0018783   0.0018515  -0.0013303   0.0008592  -0.0028241
            7           8           9          10          11          12
    1  -0.0009432   0.0009365   0.0003241   0.0072420  -0.0016647   0.0044959
    2  -0.0031057   0.0030629   0.0037611   0.0014463  -0.0036594  -0.0071109
    3   0.0005612  -0.0005584  -0.0006972   0.0023061   0.0022723   0.0043746
           13          14          15          16          17          18
    1   0.0007346  -0.0045658   0.0022640  -0.0033384  -0.0008396  -0.0054078
    2   0.0056429   0.0122612  -0.0018684   0.0014008  -0.0005362  -0.0098683
    3  -0.0013168  -0.0240477   0.0002871   0.0012797  -0.0013484   0.0194077
           19          20          21          22          23          24
    1   0.0017528  -0.0004551   0.0026379  -0.0003198  -0.0007229   0.0014416
    2  -0.0001093  -0.0041506   0.0004885  -0.0018819  -0.0007401  -0.0007463
    3  -0.0002638  -0.0016467   0.0029623   0.0013913   0.0055885  -0.0053404
           25          26          27          28          29          30
    1   0.0020513  -0.0021869   0.0003779  -0.0013423   0.0008336  -0.0005721
    2   0.0003222   0.0031492  -0.0066637   0.0008691   0.0018721   0.0009497
    3   0.0024878  -0.0032997   0.0077399  -0.0033088   0.0002041  -0.0017744
           31          32          33          34          35          36
    1   0.0037053  -0.0001244  -0.0018104   0.0005897  -0.0258826   0.0260593
    2  -0.0017524  -0.0017640   0.0012212   0.0018222   0.0123838  -0.0124174
    3  -0.0059066   0.0010929  -0.0002771   0.0008944  -0.0017985   0.0018370
           37          38          39          40          41          42
    1  -0.0261476   0.0261446  -0.0009541   0.0009318   0.0009224  -0.0260853
    2   0.0124605  -0.0124255  -0.0030978   0.0030311   0.0030380   0.0125610
    3  -0.0018022   0.0018508   0.0005228  -0.0005984  -0.0006049  -0.0018336
           43          44          45          46          47          48
    1   0.0259131  -0.0257002   0.0252017   0.0009931  -0.0009851  -0.0243472
    2  -0.0124598   0.0127150  -0.0125080   0.0030344  -0.0030974   0.0127836
    3   0.0018890  -0.0018954   0.0019406  -0.0005756   0.0004904  -0.0019634
           49          50          51          52          53          54
    1   0.0244930  -0.0010023  -0.0226417   0.0009428  -0.0009686   0.0251637
    2  -0.0099545  -0.0031069   0.0118425   0.0030331  -0.0030978  -0.0074810
    3   0.0017113   0.0004780  -0.0021591  -0.0005898   0.0005075  -0.0001746
           55          56          57          58          59          60
    1   0.0006291  -0.0157759   0.0017059   0.0030934  -0.0011662   0.0137755
    2  -0.0053979   0.0055970   0.0040837  -0.0020627  -0.0056513   0.0088386
    3   0.0006915   0.0046109  -0.0005356  -0.0010182  -0.0007775  -0.0173818
           61          62          63          64          65          66
    1  -0.0032593   0.0006373   0.0001760   0.0037284   0.0009692  -0.0037656
    2   0.0025201   0.0013091   0.0026634  -0.0046641   0.0029127  -0.0010236
    3   0.0010772  -0.0018721  -0.0034267  -0.0011728  -0.0003562  -0.0038062
           67          68          69          70          71          72
    1  -0.0041377   0.0017287   0.0001692   0.0013558  -0.0016640  -0.0033088
    2   0.0009509   0.0021592  -0.0012415   0.0004870  -0.0006812   0.0039846
    3   0.0039345  -0.0094548   0.0029608   0.0019330   0.0009709   0.0029012
           73          74          75          76          77          78
    1   0.0000038  -0.0006767   0.0011918   0.0051368  -0.0041921  -0.0037219
    2   0.0005476  -0.0025397  -0.0006715   0.0012788  -0.0006606  -0.0024598
    3  -0.0025778   0.0012272   0.0018782   0.0017420   0.0217468   0.0015615
           79          80          81          82          83          84
    1  -0.0026914  -0.0008871  -0.0002531   0.0020273   0.0011973   0.0009605
    2  -0.0000866  -0.0026089  -0.0022530  -0.0011682   0.0030771   0.0030332
    3  -0.0029306   0.0003899  -0.0017443   0.0005149  -0.0005771  -0.0005814
           85          86
    1  -0.0009456  -0.0010246
    2  -0.0031036  -0.0031013
    3   0.0005409   0.0006711
 Max gradient component =       2.615E-02
 RMS gradient           =       8.179E-03
 Gradient time:  CPU 41.98 s  wall 10.70 s
 Geometry Optimization Parameters
   NAtoms,    NIC,     NZ,  NCons,   NDum,   NFix, NCnnct, MaxDiis
       86     627       0       0       0       0       0       0

 Cartesian Hessian Update
 Hessian Updated using BFGS Update


** GEOMETRY OPTIMIZATION IN DELOCALIZED INTERNAL COORDINATES **
   Searching for a Minimum

   Optimization Cycle:   2

                       Coordinates (Angstroms)
     ATOM                X               Y               Z
      1  C         4.3683308209   -0.2955245939    0.1068748409
      2  C         5.5381063413    0.3883786067   -0.0453983452
      3  C         6.8544370525   -0.2520699918    0.0506739599
      4  C         8.0220757211    0.4336420867   -0.1050647737
      5  C         9.3413407511   -0.2060665223   -0.0062020455
      6  C        10.5011841985    0.4980931816   -0.1409582750
      7  H         5.5101207881    1.4608961727   -0.2486947942
      8  H         6.8832407431   -1.3242322026    0.2559764168
      9  H         9.3515743802   -1.2690184824    0.2250803585
     10  C        11.8990248244   -0.0195090903   -0.0110541225
     11  H        10.3949732888    1.5761711913   -0.2628680873
     12  C        12.3016351696   -1.2822162570   -0.4008013143
     13  C        13.7256758247   -1.7761270876   -0.1576932106
     14  C        14.7649631928   -0.6401685342   -0.1653534434
     15  H        14.0115156645   -2.5610448777   -0.8877627696
     16  H        13.7471884279   -2.2697572564    0.8384907410
     17  C        14.3093608022    0.3912757400    0.8744688259
     18  O        14.8844279329   -0.0323577612   -1.4612024248
     19  H        15.7543597729   -1.0473799354    0.1474851660
     20  C        12.9111827472    1.0217688201    0.5646466405
     21  H        15.0678444169    1.1856681229    1.0182448650
     22  H        14.2519569864   -0.1592162236    1.8374657465
     23  C        11.4512688271   -2.2829545790   -1.1691023711
     24  H        10.4966915872   -1.8869854478   -1.5416421394
     25  H        11.2687651695   -3.1957606445   -0.5673588637
     26  H        11.9997361067   -2.5905576350   -2.0839240954
     27  C        13.0798715409    2.1907076254   -0.4556120376
     28  H        13.4198327431    1.8278023570   -1.4393883788
     29  H        13.8190149682    2.9270853210   -0.0825339504
     30  H        12.1339655081    2.7422151330   -0.6139255163
     31  C        12.3788475537    1.6164514891    1.9031987859
     32  H        12.2247884225    0.8185443045    2.6557887600
     33  H        11.4146067641    2.1414756029    1.7686770548
     34  H        13.1000582796    2.3487075146    2.3176442200
     35  C         3.0536500340    0.3477384096    0.0117763651
     36  C         1.8821740580   -0.3344547782    0.1602067131
     37  C         0.5690021575    0.3116143328    0.0651878224
     38  C        -0.6040599323   -0.3688978182    0.2091532122
     39  H         0.5457703422    1.3855678445   -0.1309969114
     40  H         1.9064834487   -1.4081467447    0.3576948163
     41  H         4.3950337956   -1.3684654163    0.3081144775
     42  C        -1.9157736112    0.2799396279    0.1132222835
     43  C        -3.0904468886   -0.3987775170    0.2521704937
     44  C        -4.4006505214    0.2529664719    0.1543859356
     45  C        -5.5769873493   -0.4236966160    0.2878220582
     46  H        -5.5605900806   -1.4992312007    0.4757390640
     47  H        -4.4186803834    1.3280861386   -0.0358671505
     48  C        -6.8854566855    0.2314824347    0.1871271954
     49  C        -8.0633984507   -0.4428950613    0.3146171773
     50  H        -6.8993831995    1.3071958676   -0.0006519405
     51  C        -9.3727507764    0.2197219687    0.2095863782
     52  H        -0.5821820392   -1.4432735225    0.4031389271
     53  H        -1.9365298764    1.3545070490   -0.0798395543
     54  C       -10.5410079239   -0.4782013993    0.3369220819
     55  H        -9.3325014761    1.2838510910    0.0273967924
     56  C       -11.9632285294   -0.0173421607    0.2647401760
     57  H       -10.4082919412   -1.5404067598    0.5232892743
     58  C       -12.3792643641    1.2784558634    0.0099429651
     59  C       -13.8803239526    1.5551554374   -0.1324615190
     60  C       -14.4695523200    0.5148876158   -1.1046107819
     61  H       -14.0700487856    2.5731938846   -0.5198171232
     62  H       -14.4131843366    1.5049755073    0.8335726929
     63  C       -13.0799754448   -1.0901020485    0.4967046258
     64  C       -11.4516026437    2.4535227765   -0.2420958180
     65  H       -12.0186802948    3.3784925977   -0.4521998237
     66  H       -10.8111353216    2.2720372420   -1.1272578391
     67  H       -10.8299701534    2.6671893926    0.6494264111
     68  C       -13.6047985228   -0.9242995434    1.9617116274
     69  H       -14.0026082667    0.0733850665    2.1990604281
     70  H       -12.7807572449   -1.1080832379    2.6793317350
     71  H       -14.4073610808   -1.6579996085    2.1779626809
     72  C       -12.5967771622   -2.5679505072    0.3894002305
     73  H       -12.1496847394   -2.7725369367   -0.6030108835
     74  H       -13.4555975707   -3.2551951233    0.5198625241
     75  H       -11.8633333870   -2.8339743958    1.1736770208
     76  C       -14.2556925955   -0.9237966101   -0.5440538865
     77  O       -13.8823651875    0.6744752996   -2.4110112705
     78  H       -15.5546238157    0.6788653871   -1.2532078992
     79  H       -14.1137846204   -1.5802491061   -1.4273290221
     80  H       -15.1839372702   -1.2926949585   -0.0610797026
     81  H       -12.9735879408    0.2781780662   -2.4147649836
     82  H        15.3674718745   -0.6524581011   -2.0654971422
     83  H        -8.0460091035   -1.5193210938    0.4999558812
     84  H        -3.0711587246   -1.4737769162    0.4429649744
     85  H         3.0280503358    1.4210104699   -0.1878193343
     86  H         7.9902603880    1.5053509453   -0.3130202795
   Point Group: c1    Number of degrees of freedom:   252


   Energy is  -1549.895461444

 Hessian Updated using BFGS Update

209 Hessian modes will be used to form the next step
  Hessian Eigenvalues:
     0.002000    0.002223    0.002340    0.002820    0.002893    0.003644
     0.006073    0.006961    0.007551    0.007900    0.008092    0.008399
     0.009481    0.010087    0.010270    0.011127    0.011471    0.011917
     0.012116    0.012121    0.012121    0.012122    0.012123    0.012131
     0.013317    0.014053    0.014100    0.015368    0.017265    0.018756
     0.020883    0.021046    0.021119    0.021177    0.021265    0.021303
     0.021305    0.021308    0.021308    0.021308    0.021309    0.021309
     0.021309    0.021310    0.021310    0.021314    0.026609    0.029048
     0.029134    0.029632    0.030297    0.030379    0.030400    0.030401
     0.030401    0.030402    0.030404    0.033060    0.033239    0.043158
     0.045354    0.046424    0.048402    0.048593    0.048907    0.049457
     0.052180    0.052423    0.053560    0.053643    0.053971    0.054141
     0.054932    0.054995    0.055156    0.055283    0.055763    0.062438
     0.064731    0.065398    0.065930    0.066806    0.069222    0.070676
     0.072647    0.073394    0.075173    0.083799    0.085577    0.088020
     0.088243    0.088755    0.095019    0.099294    0.099621    0.130758
     0.133542    0.142026    0.149716    0.156070    0.159585    0.159908
     0.159999    0.159999    0.163406    0.165944    0.166588    0.177131
     0.187148    0.212164    0.216362    0.220000    0.220000    0.220000
     0.220023    0.220135    0.222359    0.225659    0.248845    0.249318
     0.249810    0.251133    0.254559    0.260777    0.262506    0.267594
     0.268213    0.271376    0.274246    0.274632    0.278132    0.283206
     0.285430    0.287542    0.289823    0.294775    0.299298    0.306766
     0.310168    0.315755    0.319884    0.320848    0.321392    0.322568
     0.323381    0.323512    0.323588    0.323707    0.323859    0.323965
     0.324078    0.324234    0.324450    0.324495    0.324503    0.325042
     0.325412    0.325540    0.325863    0.325967    0.326366    0.326496
     0.326581    0.328428    0.329427    0.332355    0.336314    0.337393
     0.338861    0.343358    0.346690    0.348235    0.348276    0.348280
     0.348285    0.348299    0.350767    0.350797    0.350802    0.350806
     0.350812    0.350820    0.350826    0.350829    0.350832    0.350834
     0.350838    0.350854    0.350889    0.351884    0.356040    0.356308
     0.363386    0.373588    0.435865    0.451656    0.459417    0.470339
     0.489802    0.490036    0.552110    0.561096    0.571462    0.572673
     0.573017    0.573027    0.573042    0.573063    0.601391

 Minimum Search - Taking Simple RFO Step
 Searching for Lamda that Minimizes Along All modes
 Value Taken    Lamda =  -0.02536966
 Calculated Step too Large.  Step scaled by  0.780544
 Step Taken.  Stepsize is  0.300000

                             Maximum     Tolerance    Cnvgd?
         Gradient           0.037988      0.000300      NO
         Displacement       0.102680      0.001200      NO
         Energy change     -0.034215      0.000001      NO


 New Cartesian Coordinates Obtained by Inverse Iteration

 Displacement from previous Coordinates is:  1.901439
 ----------------------------------------------------------------
             Standard Nuclear Orientation (Angstroms)
    I     Atom           X                Y                Z
 ----------------------------------------------------------------
    1      C       4.3751933923    -0.4129386564     0.0105190401
    2      C       5.5624516329     0.2709785646    -0.1351854110
    3      C       6.8702351499    -0.3342796716    -0.0278545292
    4      C       8.0507374903     0.3588003429    -0.1712087179
    5      C       9.3675236823    -0.2370922751    -0.0455710579
    6      C      10.5306270637     0.4844715332    -0.1634199692
    7      H       5.5315527458     1.3477459497    -0.3410360718
    8      H       6.9050728026    -1.4091899417     0.1866509352
    9      H       9.3952966352    -1.3029511326     0.1980415041
   10      C      11.9215667860     0.0108304351    -0.0015958724
   11      H      10.4154402432     1.5635335435    -0.3110358783
   12      C      12.3503198040    -1.2433833772    -0.3749144743
   13      C      13.7782601797    -1.7239498203    -0.0895927078
   14      C      14.8075852811    -0.5705083812    -0.0492715468
   15      H      14.0877036007    -2.4960778910    -0.8195351207
   16      H      13.7917525699    -2.2266968504     0.9011984250
   17      C      14.2954889902     0.4771104034     0.9529251296
   18      O      14.9734730083     0.0570343756    -1.3589762793
   19      H      15.7876916090    -0.9644312013     0.2970091950
   20      C      12.8969694797     1.0879848113     0.5914269931
   21      H      15.0332838710     1.2857728613     1.0955872838
   22      H      14.2131714765    -0.0498085325     1.9235616862
   23      C      11.5144916767    -2.2544016605    -1.1484911800
   24      H      10.5599963215    -1.8495929806    -1.5117831124
   25      H      11.3098941028    -3.1636109630    -0.5502699788
   26      H      12.0799796922    -2.5834428179    -2.0435236809
   27      C      13.0845581626     2.2485919468    -0.4455989130
   28      H      13.4742191572     1.8650640079    -1.3989502011
   29      H      13.7989306525     2.9955693029    -0.0541283836
   30      H      12.1366818039     2.7798710322    -0.6422051687
   31      C      12.3102523882     1.6903570578     1.9120836305
   32      H      12.1447566848     0.9017199263     2.6676321956
   33      H      11.3461318161     2.1979953729     1.7419131043
   34      H      13.0104374751     2.4330913767     2.3362913495
   35      C       3.0740098878     0.2053075205    -0.0838224241
   36      C       1.8802892982    -0.4683617490     0.0623527952
   37      C       0.5853992354     0.1631467846    -0.0228068522
   38      C      -0.6146865481    -0.4999393630     0.1212930557
   39      H       0.5739886944     1.2432113426    -0.2126684347
   40      H       1.8968811237    -1.5471515416     0.2584511188
   41      H       4.4015907849    -1.4899174571     0.2153732518
   42      C      -1.9034419347     0.1445997850     0.0416766657
   43      C      -3.1097306231    -0.5078703456     0.1815428946
   44      C      -4.3926864405     0.1491633274     0.1040103517
   45      C      -5.6047655749    -0.4929125830     0.2377700281
   46      H      -5.6189039724    -1.5752065405     0.4136278090
   47      H      -4.3834750988     1.2312771327    -0.0739178779
   48      C      -6.8827541559     0.1759165321     0.1590014893
   49      C      -8.0997056764    -0.4562909074     0.2851522108
   50      H      -6.8626811743     1.2586550553    -0.0146096903
   51      C      -9.3760184745     0.2281723361     0.2018277427
   52      H      -0.6083451187    -1.5802308860     0.3095426568
   53      H      -1.9045144374     1.2258434020    -0.1416834780
   54      C     -10.5766508324    -0.4378392669     0.3276095387
   55      H      -9.3132530942     1.3003919608     0.0340823932
   56      C     -11.9718276524     0.0297772268     0.2744829268
   57      H     -10.4711545950    -1.5100460144     0.5006642708
   58      C     -12.3893712401     1.3328047026     0.0407054771
   59      C     -13.8910079566     1.6162471449    -0.0764808281
   60      C     -14.5263084993     0.5747976998    -1.0313284982
   61      H     -14.0681734894     2.6325574048    -0.4642033229
   62      H     -14.4043763144     1.5661890816     0.9030306697
   63      C     -13.0919614896    -1.0456952486     0.5313701142
   64      C     -11.4641821183     2.5152198084    -0.2068965936
   65      H     -12.0468986234     3.4321093225    -0.3937133133
   66      H     -10.8205026195     2.3561921452    -1.0922098175
   67      H     -10.8125637902     2.7179280199     0.6636148547
   68      C     -13.5808129516    -0.8934190865     2.0168198351
   69      H     -13.9684458158     0.1096619729     2.2508227272
   70      H     -12.7424279886    -1.0862787635     2.7099589191
   71      H     -14.3793297841    -1.6248754444     2.2408992978
   72      C     -12.6191134283    -2.5272806326     0.3842702257
   73      H     -12.1948807870    -2.7235280469    -0.6160891316
   74      H     -13.4853684125    -3.1989986097     0.5193579280
   75      H     -11.8742109149    -2.8134552057     1.1454846447
   76      C     -14.3016010695    -0.8636531619    -0.4742161157
   77      O     -13.9810293437     0.7344469985    -2.3815269943
   78      H     -15.6057117087     0.7599669508    -1.1565339913
   79      H     -14.1768914852    -1.5255750806    -1.3521564207
   80      H     -15.2184153481    -1.2178805579     0.0345791646
   81      H     -13.0669218526     0.3525611976    -2.3981461760
   82      H      15.4746399493    -0.5586310805    -1.9502203137
   83      H      -8.1211085831    -1.5395839854     0.4565641592
   84      H      -3.1137531682    -1.5893354705     0.3630153330
   85      H       3.0525500299     1.2838860305    -0.2811751597
   86      H       8.0110169921     1.4333152059    -0.3877937343
 ----------------------------------------------------------------
[...]
     0.053713    0.053911    0.054050    0.054922    0.055054    0.055205
     0.055368    0.055389    0.060654    0.063124    0.064639    0.065116
     0.065931    0.066531    0.068728    0.071591    0.072346    0.073503
     0.074987    0.084035    0.084970    0.087401    0.088652    0.089340
     0.093963    0.097175    0.101448    0.106627    0.119075    0.141226
     0.143073    0.147061    0.149481    0.153626    0.157113    0.159112
     0.159533    0.159659    0.159806    0.159854    0.159935    0.159965
     0.159998    0.160000    0.160000    0.160007    0.160035    0.160079
     0.160121    0.160171    0.160325    0.160431    0.160536    0.160593
     0.160818    0.161154    0.161739    0.162330    0.163078    0.166118
     0.167806    0.170420    0.173246    0.181201    0.189631    0.215968
     0.216425    0.219463    0.219797    0.219987    0.220000    0.220000
     0.220000    0.220000    0.220001    0.220019    0.220057    0.220120
     0.220562    0.221080    0.225564    0.226764    0.230742    0.238617
     0.249165    0.250552    0.254666    0.263694    0.264887    0.269015
     0.272920    0.274672    0.275665    0.279321    0.279680    0.287285
     0.287812    0.289164    0.294918    0.299871    0.302530    0.306233
     0.311426    0.313291    0.316561    0.320881    0.321226    0.322357
     0.323234    0.323371    0.323580    0.323862    0.323960    0.323966
     0.324174    0.324205    0.324456    0.324479    0.324584    0.324847
     0.325087    0.325768    0.325830    0.325948    0.326250    0.326776
     0.326982    0.328148    0.329203    0.331686    0.335063    0.337719
     0.339836    0.343322    0.346619    0.348209    0.348277    0.348282
     0.348283    0.348359    0.350377    0.350734    0.350798    0.350802
     0.350806    0.350817    0.350830    0.350831    0.350832    0.350836
     0.350842    0.350882    0.350966    0.351048    0.355094    0.356109
     0.364739    0.371947    0.386927    0.429245    0.439947    0.448183
     0.487558    0.489972    0.502479    0.545479    0.556109    0.569473
     0.571807    0.572977    0.573026    0.573048    0.573110    0.577833
     0.611395    1.315870

 Minimum Search - Taking Simple RFO Step
 Searching for Lamda that Minimizes Along All modes
 Value Taken    Lamda =  -0.00034876
 Calculated Step too Large.  Step scaled by  0.431943
 Step Taken.  Stepsize is  0.300000

                             Maximum     Tolerance    Cnvgd?
         Gradient           0.002791      0.000300      NO
         Displacement       0.085941      0.001200      NO
         Energy change     -0.000117      0.000001      NO


 New Cartesian Coordinates Obtained by Inverse Iteration

 Displacement from previous Coordinates is:  1.031754
 ----------------------------------------------------------------
             Standard Nuclear Orientation (Angstroms)
    I     Atom           X                Y                Z
 ----------------------------------------------------------------
    1      C       4.3301503857    -0.2390634050     0.0869259134
    2      C       5.5411898129     0.3260764806    -0.2842036211
    3      C       6.8270996616    -0.2519477031    -0.0219909959
    4      C       8.0332766051     0.3276610912    -0.3721144960
    5      C       9.3297595815    -0.2396024702    -0.0923181277
    6      C      10.5181725058     0.3874105454    -0.3941377972
    7      H       5.5250817370     1.2893100404    -0.8122356307
    8      H       6.8442913672    -1.2185745328     0.4997273886
    9      H       9.3420315532    -1.2049667810     0.4261484074
   10      C      11.8918776494    -0.0725925718    -0.1126795802
   11      H      10.4377386350     1.3909282063    -0.8327147712
   12      C      12.3071185709    -1.3739178843    -0.2827501467
   13      C      13.7180194497    -1.8399919739     0.0827293915
   14      C      14.7742214733    -0.7206002277     0.1912619828
   15      H      14.0593284660    -2.5987339149    -0.6507606908
   16      H      13.6813721050    -2.3800663099     1.0542589898
   17      C      14.1960041040     0.4897106369     0.9385526849
   18      O      15.2246458129    -0.2528635195    -1.1463674852
   19      H      15.6567717308    -1.1064190273     0.7422046062
   20      C      12.8618215640     1.0667155965     0.3575302273
   21      H      14.9522080411     1.2931006951     0.9787792713
   22      H      14.0194826280     0.1621044865     1.9812724753
   23      C      11.4326717666    -2.4899045448    -0.8411518307
   24      H      10.5433156714    -2.1100136309    -1.3634757059
   25      H      11.0852025170    -3.1803183553    -0.0461995163
   26      H      12.0130209576    -3.1070776643    -1.5532240907
   27      C      13.1739026268     2.0296350705    -0.8419726347
   28      H      13.7315755613     1.4963367390    -1.6234196005
   29      H      13.7927105247     2.8742119899    -0.4876016295
   30      H      12.2521952107     2.4548562555    -1.2745109808
   31      C      12.1928606761     1.8968537886     1.5066034301
   32      H      11.8852292673     1.2435965426     2.3420165175
   33      H      11.2998462077     2.4372947856     1.1546053953
   34      H      12.9093117082     2.6423072533     1.8958159141
   35      C       3.0491045375     0.3458047966    -0.1672103972
   36      C       1.8362538875    -0.2105955104     0.2172513960
   37      C       0.5565939272     0.3744871791    -0.0365666673
   38      C      -0.6558429388    -0.1805499791     0.3528604084
   39      H       0.5402757974     1.3294098793    -0.5795060042
   40      H       1.8518808767    -1.1680641733     0.7555437130
   41      H       4.3459370374    -1.2007304567     0.6176948367
   42      C      -1.9374800284     0.3969125700     0.0916381630
   43      C      -3.1470306691    -0.1641344287     0.4796612894
   44      C      -4.4342443654     0.3966411109     0.2034504493
   45      C      -5.6375320776    -0.1781139585     0.5850002083
   46      H      -5.6057952105    -1.1207121624     1.1484815117
   47      H      -4.4612227495     1.3409607310    -0.3572054308
   48      C      -6.9342839139     0.3558020378     0.2862548539
   49      C      -8.1264308357    -0.2390111828     0.6592262325
   50      H      -6.9714787442     1.2920820676    -0.2871272110
   51      C      -9.4384304213     0.2589191372     0.3300037933
   52      H      -0.6380985656    -1.1340096470     0.8981885742
   53      H      -1.9574225549     1.3471913655    -0.4592252245
   54      C     -10.6044125599    -0.3883074844     0.6769933605
   55      H      -9.4807542646     1.1773448209    -0.2656590945
   56      C     -11.9946508074    -0.0215845225     0.3565437333
   57      H     -10.4811933474    -1.3379799546     1.2129521037
   58      C     -12.4799794936     1.2706565435     0.3621813396
   59      C     -13.9209702548     1.5545673481    -0.0727654236
   60      C     -14.3402758644     0.5867408367    -1.1974335366
   61      H     -14.0047314671     2.5955538051    -0.4311523282
   62      H     -14.6192853762     1.4592404763     0.7857070795
   63      C     -12.9737753347    -1.2395736717     0.1566274458
   64      C     -11.7085320122     2.5031977864     0.8079245307
   65      H     -12.3520889258     3.1254763692     1.4601046773
   66      H     -11.4344039079     3.1456599370    -0.0519286102
   67      H     -10.7920278163     2.2592315635     1.3623279416
   68      C     -13.4439813631    -1.6896407722     1.5881829053
   69      H     -13.9999365286    -0.8826393019     2.0952676795
   70      H     -12.5842991644    -1.9602509674     2.2257664687
   71      H     -14.1036102322    -2.5731953457     1.5165563661
   72      C     -12.2618210675    -2.4508582409    -0.5348351050
   73      H     -11.8383436867    -2.1535983515    -1.5090039816
   74      H     -12.9973643428    -3.2547771721    -0.7105379394
   75      H     -11.4498599089    -2.8730776552     0.0777085114
   76      C     -14.2523274909    -0.8774324343    -0.7180079814
   77      O     -13.5126313545     0.8146788991    -2.4116925254
   78      H     -15.3600316842     0.8072689471    -1.5490867889
   79      H     -14.2799645521    -1.5142055879    -1.6172036528
   80      H     -15.1626483864    -1.1142864682    -0.1360586830
   81      H     -12.5624330814     0.7238872326    -2.1328706089
   82      H      15.5571393732    -1.0361390930    -1.6559708517
   83      H      -8.0826731859    -1.1735206485     1.2355826119
   84      H      -3.1241376393    -1.1129042257     1.0330030431
   85      H       3.0337984817     1.3047532925    -0.7030457188
   86      H       8.0160773600     1.2955247298    -0.8917471280
 ----------------------------------------------------------------
 Molecular Point Group                 C1    NOp =  1
 Largest Abelian Subgroup              C1    NOp =  1
 Nuclear Repulsion Energy =  3215.3020944826 hartrees
 There are      140 alpha and      140 beta electrons
 Applying Cartesian multipole field
    Component          Value
    ---------          -----
     (2,0,0)        1.00000E-12
     (0,2,0)        2.00000E-11
     (0,0,2)       -3.00000E-11
 Nucleus-field energy     =     0.0000001251 hartrees
 Requested basis set is 6-31G
 There are 210 shells and 438 basis functions
 A cutoff of  1.0D-11 yielded   6874 shell pairs
 There are     32431 function pairs
 Smallest overlap matrix eigenvalue = 1.89E-03
 Guess MOs from SCF MO coefficient file

 -----------------------------------------------------------------------
  General SCF calculation program by
  Eric Jon Sundstrom, Paul Horn, Yuezhi Mao, Dmitri Zuev, Alec White,
  David Stuck, Shaama M.S., Shane Yost, Joonho Lee, David Small,
  Daniel Levine, Susi Lehtola, Hugh Burton, Evgeny Epifanovsky
 -----------------------------------------------------------------------
 Exchange:  B88      Correlation:  LYP
 Using SG-1 standard quadrature grid
 using 4 threads for integral computing
 -------------------------------------------------------
 OpenMP Integral computing Module                
 Release: version 1.0, May 2013, Q-Chem Inc. Pittsburgh 
 -------------------------------------------------------
 -------------------------------------------------------
 OpenMP BLAS3 based DFT computing Module                
 Release: version 1.0, May 2013, Q-Chem Inc. Pittsburgh 
 -------------------------------------------------------
 A restricted SCF calculation will be
 performed using DIIS
 SCF converges when DIIS error is below 1.0e-08
 ---------------------------------------
  Cycle       Energy         DIIS error
 ---------------------------------------
    1   -1549.9133744219      2.85e-04  
    2   -1549.9182565309      4.08e-05  
    3   -1549.9181415363      8.55e-05  
    4   -1549.9182926048      1.15e-05  
    5   -1549.9182931501      1.01e-05  
    6   -1549.9182961737      3.74e-06  
    7   -1549.9182967198      7.97e-07  
    8   -1549.9182967388      3.54e-07  
    9   -1549.9182967424      1.88e-07  
   10   -1549.9182967436      3.25e-08  
   11   -1549.9182967436      3.46e-08  
   12   -1549.9182967437      7.88e-09  Convergence criterion met
 ---------------------------------------
 SCF time:   CPU 259.86s  wall 65.00s 
 SCF   energy in the final basis set =    -1549.9182967437
 Total energy in the final basis set =    -1549.9182967437
 
 --------------------------------------------------------------
 
                    Orbital Energies (a.u.)
 --------------------------------------------------------------
 
 Alpha MOs
 -- Occupied --
-18.784 -18.771  -9.972  -9.964  -9.943  -9.933  -9.933  -9.928
 -9.928  -9.925  -9.925  -9.925  -9.924  -9.924  -9.924  -9.924
 -9.924  -9.924  -9.924  -9.924  -9.924  -9.923  -9.923  -9.923
 -9.923  -9.923  -9.921  -9.921  -9.921  -9.920  -9.914  -9.913
 -9.912  -9.911  -9.910  -9.906  -9.900  -9.891  -0.908  -0.896
 -0.758  -0.755  -0.740  -0.735  -0.727  -0.716  -0.704  -0.702
 -0.699  -0.691  -0.678  -0.667  -0.654  -0.640  -0.624  -0.612
 -0.608  -0.606  -0.603  -0.598  -0.594  -0.572  -0.552  -0.536
 -0.523  -0.512  -0.506  -0.500  -0.497  -0.496  -0.489  -0.485
 -0.482  -0.478  -0.454  -0.440  -0.429  -0.428  -0.423  -0.418
 -0.413  -0.407  -0.403  -0.401  -0.394  -0.390  -0.386  -0.384
 -0.376  -0.373  -0.372  -0.368  -0.363  -0.359  -0.357  -0.353
 -0.351  -0.348  -0.346  -0.344  -0.343  -0.342  -0.339  -0.333
 -0.331  -0.327  -0.323  -0.319  -0.317  -0.315  -0.310  -0.306
 -0.304  -0.303  -0.303  -0.301  -0.301  -0.300  -0.299  -0.297
 -0.296  -0.289  -0.285  -0.283  -0.277  -0.271  -0.269  -0.263
 -0.259  -0.251  -0.248  -0.247  -0.234  -0.216  -0.205  -0.201
 -0.193  -0.183  -0.163  -0.138
 -- Virtual --
 -0.097  -0.067  -0.039  -0.014   0.006   0.023   0.032   0.039
  0.047   0.056   0.060   0.064   0.068   0.070   0.075   0.077
  0.079   0.082   0.085   0.089   0.092   0.095   0.099   0.103
  0.105   0.108   0.112   0.116   0.119   0.120   0.120   0.124
  0.127   0.128   0.130   0.132   0.133   0.135   0.137   0.137
  0.140   0.143   0.145   0.148   0.148   0.152   0.155   0.156
  0.159   0.159   0.162   0.166   0.169   0.173   0.174   0.176
  0.178   0.181   0.181   0.188   0.188   0.191   0.192   0.194
  0.203   0.210   0.211   0.215   0.221   0.226   0.236   0.239
  0.245   0.247   0.250   0.256   0.266   0.269   0.288   0.305
  0.310   0.312   0.327   0.337   0.340   0.350   0.354   0.359
  0.366   0.369   0.373   0.374   0.376   0.379   0.403   0.412
  0.431   0.440   0.472   0.479   0.483   0.486   0.488   0.490
  0.493   0.497   0.503   0.506   0.509   0.514   0.516   0.519
  0.524   0.527   0.529   0.531   0.534   0.538   0.541   0.546
  0.549   0.550   0.550   0.557   0.561   0.566   0.567   0.570
  0.575   0.580   0.586   0.591   0.594   0.594   0.595   0.596
  0.598   0.598   0.600   0.602   0.607   0.611   0.615   0.617
  0.620   0.622   0.623   0.626   0.628   0.634   0.637   0.640
  0.645   0.652   0.664   0.666   0.673   0.679   0.685   0.697
  0.701   0.703   0.711   0.716   0.721   0.723   0.731   0.732
  0.753   0.757   0.762   0.764   0.766   0.767   0.768   0.772
  0.773   0.779   0.787   0.791   0.791   0.797   0.801   0.808
  0.809   0.817   0.823   0.825   0.835   0.835   0.841   0.844
  0.849   0.850   0.854   0.855   0.858   0.861   0.866   0.867
  0.870   0.873   0.874   0.880   0.880   0.882   0.886   0.894
  0.896   0.900   0.903   0.917   0.918   0.920   0.922   0.928
  0.928   0.932   0.935   0.937   0.940   0.941   0.944   0.947
  0.952   0.957   0.958   0.963   0.967   0.971   0.975   0.983
  0.985   0.988   1.003   1.012   1.020   1.024   1.028   1.030
  1.034   1.048   1.053   1.064   1.072   1.081   1.092   1.094
  1.107   1.109   1.117   1.123   1.129   1.130   1.140   1.144
  1.171   1.173   1.183   1.187   1.200   1.207   1.212   1.216
  1.219   1.242   1.247   1.263   1.270   1.282   1.292   1.301
  1.315   1.317   1.326   1.327   1.339   1.363   1.378   1.389
  1.412   1.445   1.452   1.463   1.487   1.491   1.499   1.512
  1.549   1.593   1.602   1.606   1.644   1.680   1.817   1.854
  1.908   1.939
 --------------------------------------------------------------
 
          Ground-State Mulliken Net Atomic Charges

     Atom                 Charge (a.u.)
  ----------------------------------------
      1 C                    -0.093839
      2 C                    -0.093200
      3 C                    -0.094385
      4 C                    -0.096317
      5 C                    -0.069151
      6 C                    -0.167505
      7 H                     0.091601
      8 H                     0.089975
      9 H                     0.098601
     10 C                     0.094281
     11 H                     0.101690
     12 C                     0.107258
     13 C                    -0.290036
     14 C                     0.094517
     15 H                     0.101863
     16 H                     0.124869
     17 C                    -0.210782
     18 O                    -0.556756
     19 H                     0.095255
     20 C                     0.015099
     21 H                     0.119898
     22 H                     0.107865
     23 C                    -0.441805
     24 H                     0.144866
     25 H                     0.128661
     26 H                     0.117684
     27 C                    -0.372576
     28 H                     0.162719
     29 H                     0.107595
     30 H                     0.104917
     31 C                    -0.362923
     32 H                     0.114648
     33 H                     0.116637
     34 H                     0.111921
     35 C                    -0.093262
     36 C                    -0.094042
     37 C                    -0.092823
     38 C                    -0.094470
     39 H                     0.091779
     40 H                     0.091151
     41 H                     0.090803
     42 C                    -0.092292
     43 C                    -0.095162
     44 C                    -0.091670
     45 C                    -0.095659
     46 H                     0.090998
     47 H                     0.091752
     48 C                    -0.092006
     49 C                    -0.099278
     50 H                     0.091381
     51 C                    -0.070392
     52 H                     0.091282
     53 H                     0.091809
     54 C                    -0.159033
     55 H                     0.098009
     56 C                     0.074659
     57 H                     0.098677
     58 C                     0.067516
     59 C                    -0.272400
     60 C                     0.079935
     61 H                     0.129034
     62 H                     0.121664
     63 C                     0.022827
     64 C                    -0.441970
     65 H                     0.127989
     66 H                     0.134538
     67 H                     0.141394
     68 C                    -0.371780
     69 H                     0.121118
     70 H                     0.118601
     71 H                     0.118081
     72 C                    -0.374089
     73 H                     0.124763
     74 H                     0.116393
     75 H                     0.113152
     76 C                    -0.237117
     77 O                    -0.563079
     78 H                     0.119307
     79 H                     0.134464
     80 H                     0.107449
     81 H                     0.329988
     82 H                     0.332086
     83 H                     0.090310
     84 H                     0.091252
     85 H                     0.091716
     86 H                     0.091500
  ----------------------------------------
  Sum of atomic charges =    -0.000000

 -----------------------------------------------------------------
                    Cartesian Multipole Moments
 -----------------------------------------------------------------
    Charge (ESU x 10^10)
                -0.0000
    Dipole Moment (Debye)
         X       2.0168      Y      -2.1369      Z       2.4943
       Tot       3.8542
    Quadrupole Moments (Debye-Ang)
        XX    -203.1526     XY     -23.5073     YY    -221.4372
        XZ     -21.9532     YZ      -3.0267     ZZ    -244.6624
    Octopole Moments (Debye-Ang^2)
       XXX     475.5830    XXY    -502.7604    XYY      31.5518
       YYY      -0.7692    XXZ     501.4875    XYZ       4.0718
       YYZ      -7.9356    XZZ     125.4581    YZZ     -16.4389
       ZZZ      -4.6537
    Hexadecapole Moments (Debye-Ang^3)
      XXXX -149315.5655   XXXY   -5453.6293   XXYY  -25461.3892
      XYYY      11.9520   YYYY   -2411.2525   XXXZ   -4331.6679
      XXYZ     840.5798   XYYZ     -28.7416   YYYZ     -38.7715
      XXZZ  -28114.7726   XYZZ      90.2091   YYZZ    -601.7901
      XZZZ    -146.7130   YZZZ      -9.3059   ZZZZ   -1263.7671
 -----------------------------------------------------------------
 Calculating analytic gradient of the SCF energy
