
Running Job 1 of 1 sys_2_car_1_diox_opt_vdz_mgga.in
qchem sys_2_car_1_diox_opt_vdz_mgga.in_31024.0 /scr/c295_lal/157310/qchem31024/ 1
/usr/software/qchem_511/exe/qcprog.exe_s sys_2_car_1_diox_opt_vdz_mgga.in_31024.0 /scr/c295_lal/157310/qchem31024/
Check license passed

                  Welcome to Q-Chem
     A Quantum Leap Into The Future Of Chemistry


 Q-Chem 5.1, Q-Chem, Inc., Pleasanton, CA (2018)

 Yihan Shao,  Zhengting Gan,  E. Epifanovsky,  A. T. B. Gilbert,  M. Wormit,  
 J. Kussmann,  A. W. Lange,  A. Behn,  Jia Deng,  Xintian Feng,  D. Ghosh,  
 M. Goldey,  P. R. Horn,  L. D. Jacobson,  I. Kaliman,  T. Kus,  A. Landau,  
 Jie Liu,  E. I. Proynov,  R. M. Richard,  R. P. Steele,  E. J. Sundstrom,  
 H. L. Woodcock III,  P. M. Zimmerman,  D. Zuev,  B. Albrecht,  E. Alguire,  
 S. A. Baeppler,  D. Barton,  Z. Benda,  Y. A. Bernard,  E. J. Berquist,  
 K. B. Bravaya,  H. Burton,  D. Casanova,  Chun-Min Chang,  Yunqing Chen,  
 A. Chien,  K. D. Closser,  M. P. Coons,  S. Coriani,  S. Dasgupta,  
 A. L. Dempwolff,  M. Diedenhofen,  Hainam Do,  R. G. Edgar,  Po-Tung Fang,  
 S. Faraji,  S. Fatehi,  Qingguo Feng,  K. D. Fenk,  J. Fosso-Tande,  
 Qinghui Ge,  A. Ghysels,  G. Gidofalvi,  J. Gomes,  J. Gonthier,  A. Gunina,  
 D. Hait,  M. W. D. Hanson-Heine,  P. H. P. Harbach,  A. W. Hauser,  
 J. E. Herr,  E. G. Hohenstein,  Z. C. Holden,  Kerwin Hui,  B. C. Huynh,  
 T.-C. Jagau,  Hyunjun Ji,  B. Kaduk,  K. Khistyaev,  Jaehoon Kim,  
 P. Klunzinger,  K. Koh,  D. Kosenkov,  L. Koulias,  T. Kowalczyk,  
 C. M. Krauter,  A. Kunitsa,  Ka Un Lao,  A. Laurent,  K. V. Lawler,  
 Joonho Lee,  D. Lefrancois,  S. Lehtola,  D. S. Levine,  Yi-Pei Li,  
 You-Sheng Lin,  Fenglai Liu,  E. Livshits,  A. Luenser,  P. Manohar,  
 E. Mansoor,  S. F. Manzer,  Shan-Ping Mao,  Yuezhi Mao,  N. Mardirossian,  
 A. V. Marenich,  T. Markovich,  L. A. Martinez-Martinez,  S. A. Maurer,  
 N. J. Mayhall,  S. C. McKenzie,  J.-M. Mewes,  A. F. Morrison,  
 J. W. Mullinax,  K. Nanda,  T. S. Nguyen-Beck,  R. Olivares-Amaya,  
 J. A. Parkhill,  T. M. Perrine,  F. Plasser,  P. Pokhilko,  S. Prager,  
 A. Prociuk,  E. Ramos,  D. R. Rehn,  F. Rob,  M. Schneider,  N. Sergueev,  
 S. M. Sharada,  S. Sharma,  D. W. Small,  T. Stauch,  T. Stein,  
 Yu-Chuan Su,  A. J. W. Thom,  A. Tkatchenko,  T. Tsuchimochi,  N. M. Tubman,  
 L. Vogt,  M. L. Vidal,  O. Vydrov,  M. A. Watson,  J. Wenzel,  
 M. de Wergifosse,  T. A. Wesolowski,  A. White,  J. Witte,  A. Yamada,  
 Jun Yang,  K. Yao,  S. Yeganeh,  S. R. Yost,  Zhi-Qiang You,  A. Zech,  
 Igor Ying Zhang,  Xing Zhang,  Yan Zhao,  Ying Zhu,  B. R. Brooks,  
 G. K. L. Chan,  C. J. Cramer,  M. S. Gordon,  W. J. Hehre,  A. Klamt,  
 M. W. Schmidt,  C. D. Sherrill,  D. G. Truhlar,  A. Aspuru-Guzik,  R. Baer,  
 A. T. Bell,  N. A. Besley,  Jeng-Da Chai,  A. E. DePrince, III,  
 R. A. DiStasio Jr.,  A. Dreuw,  B. D. Dunietz,  T. R. Furlani,  
 Chao-Ping Hsu,  Yousung Jung,  Jing Kong,  D. S. Lambrecht,  WanZhen Liang,  
 C. Ochsenfeld,  V. A. Rassolov,  L. V. Slipchenko,  J. E. Subotnik,  
 T. Van Voorhis,  J. M. Herbert,  A. I. Krylov,  P. M. W. Gill,  M. Head-Gordon

 Contributors to earlier versions of Q-Chem not listed above: 
 R. D. Adamson,  B. Austin,  J. Baker,  G. J. O. Beran,  K. Brandhorst,  
 S. T. Brown,  E. F. C. Byrd,  A. K. Chakraborty,  C.-L. Cheng,  
 Siu Hung Chien,  D. M. Chipman,  D. L. Crittenden,  H. Dachsel,  
 R. J. Doerksen,  A. D. Dutoi,  L. Fusti-Molnar,  W. A. Goddard III,  
 A. Golubeva-Zadorozhnaya,  S. R. Gwaltney,  G. Hawkins,  A. Heyden,  
 S. Hirata,  G. Kedziora,  F. J. Keil,  C. Kelley,  Jihan Kim,  R. A. King,  
 R. Z. Khaliullin,  P. P. Korambath,  W. Kurlancheek,  A. M. Lee,  M. S. Lee,  
 S. V. Levchenko,  Ching Yeh Lin,  D. Liotard,  R. C. Lochan,  I. Lotan,  
 P. E. Maslen,  N. Nair,  D. P. O'Neill,  D. Neuhauser,  E. Neuscamman,  
 C. M. Oana,  R. Olson,  B. Peters,  R. Peverati,  P. A. Pieniazek,  
 Y. M. Rhee,  J. Ritchie,  M. A. Rohrdanz,  E. Rosta,  N. J. Russ,  
 H. F. Schaefer III,  N. E. Schultz,  N. Shenvi,  A. C. Simmonett,  A. Sodt,  
 D. Stuck,  K. S. Thanthiriwatte,  V. Vanovschi,  Tao Wang,  A. Warshel,  
 C. F. Williams,  Q. Wu,  X. Xu,  W. Zhang

 Please cite Q-Chem as follows:
 Y. Shao et al., Mol. Phys. 113, 184-215 (2015)
 DOI: 10.1080/00268976.2014.952696

 Q-Chem 5.1.1 for Intel X86 EM64T Linux

 Parts of Q-Chem use Armadillo 8.300.2 (Tropical Shenanigans).
 http://arma.sourceforge.net/

 Q-Chem begins on Tue Nov 27 22:42:45 2018  

Host: cub-0-4.local
0

     Scratch files written to /scr/c295_lal/157310/qchem31024//
 Aug318 |scratch|qcdevops|jenkins|workspace|build_RNUM -1
Processing $rem in /usr/software/qchem_511/config/preferences.
 MEM_TOTAL  2000 
Input Ideriv = 2
Curr. Ideriv = -1
Max.  Ideriv = 2
Input Ideriv = 1
Curr. Ideriv = 2
Max.  Ideriv = 1

Checking the input file for inconsistencies... 	...done.

--------------------------------------------------------------
User input:
--------------------------------------------------------------
$molecule
2 5
Fe         0.29287       -0.25576        0.08878
H         -4.04064       -5.89730        2.78914
H         -3.40022       -3.37626        2.96365
H         -3.26263       -5.68246        4.35088
C         -3.06527       -6.00113        3.30995
C         -2.32501       -3.60597        3.08272
H         -3.42346       -8.12847        3.56241
H         -2.09939       -3.44819        4.15443
C         -2.60410       -7.45399        3.26389
C         -2.07631       -5.03950        2.69403
H         -1.76367       -2.88245        2.48193
H         -2.95493       -7.57268        1.14566
C         -2.12613       -7.77259        1.85259
H         -1.78682       -7.61214        3.99220
C         -1.07370       -5.46018        1.87301
H         -1.86740       -8.84026        1.74163
O         -0.52168       -3.30639        0.65142
H         -1.65507       -6.50901       -0.59059
C         -0.90711       -6.92333        1.43099
C         -0.80288       -7.01726       -0.10777
C         -0.01818       -4.53386        1.36315
H          0.29970       -3.40983        3.24098
O          0.64361       -2.50006        1.34136
C          0.82204       -3.63532        2.29587
H         -0.81570       -8.07828       -0.41292
C          0.37945       -7.50499        2.05601
H          0.30788       -7.54530        3.15595
H          0.12639       -6.57709       -0.50220
H          0.66542       -5.04916        0.67390
H          0.56360       -8.52835        1.68439
H          1.80314       -5.52393        4.00504
C          2.24879       -3.99343        2.54669
H          2.30582       -3.97824        4.70489
H          1.26488       -6.89557        1.80134
C          2.49427       -4.67195        3.86375
H          2.84651       -3.20628        0.69742
C          3.18961       -3.71661        1.60371
H          3.51881       -5.05440        3.96685
C          4.60811       -4.00223        1.68014
H          4.98594       -4.48393        2.58792
H          5.15028       -3.21763       -0.23117
C          5.48188       -3.70095        0.69339
H          6.54727       -3.92683        0.77746
$end

$rem
BASIS = VDZ
METHOD  = B97M-rV
JOBTYPE = OPT
MAX_SCF_CYCLES = 500
SCF_ALGORITHM = DIIS_GDM
$end
--------------------------------------------------------------
 ----------------------------------------------------------------
             Standard Nuclear Orientation (Angstroms)
    I     Atom           X                Y                Z
 ----------------------------------------------------------------
    1      Fe      3.4377452441     2.6499476290    -0.3933446410
    2      H      -4.1045243702     2.2074238201     0.5102970831
    3      H      -1.8655117226     3.2049942691     1.3979398948
    4      H      -3.8245247313     1.4888698601     2.0900970775
    5      C      -3.6956004401     1.3023187539     1.0072240400
    6      C      -1.3942265976     2.2076486494     1.4767620930
    7      H      -5.5648515064     0.2565776070     0.6467555833
    8      H      -1.3865974743     1.9616704362     2.5555566758
    9      C      -4.4809549551     0.0703593331     0.5700790486
   10      C      -2.2174889076     1.2061771154     0.7104502749
   11      H      -0.3639244705     2.2992574068     1.1167374098
   12      H      -4.2926439441     0.5990584330    -1.5057541727
   13      C      -4.0903349606    -0.2783222451    -0.8608528672
   14      H      -4.2596826827    -0.7760570503     1.2468444173
   15      C      -1.7139643486     0.2949001704    -0.1683612310
   16      H      -4.6994241958    -1.1091378826    -1.2582547337
   17      O       0.5226408410     1.3545265687    -0.7256840230
   18      H      -2.2824135324     0.4943523019    -2.8412706531
   19      C      -2.5980455985    -0.6521168413    -0.9963110809
   20      C      -2.2430780237    -0.5532670084    -2.4968762434
   21      C      -0.2455006582     0.1090563128    -0.3714003476
   22      H       0.3517887879     0.2512100757     1.7531641418
   23      O       1.6893275143     0.8254758578     0.1924845935
   24      C       0.7304518603    -0.1476534301     0.7969006273
   25      H      -2.9711064994    -1.1379770064    -3.0860562431
   26      C      -2.3758709723    -2.1054212432    -0.5243367800
   27      H      -2.7079300540    -2.2433669239     0.5184109939
   28      H      -1.2429777076    -0.9522993459    -2.7280470420
   29      H      -0.0423170518    -0.6305113665    -1.1585881793
   30      H      -2.9374274221    -2.8110038265    -1.1615854821
   31      H      -0.4663968982    -2.3198437275     1.9369924623
   32      C       1.2943513359    -1.5176189021     0.9757329342
   33      H       0.8362754264    -1.8855314275     3.0532596444
   34      H      -1.3095631109    -2.3893672983    -0.5753074836
   35      C       0.6331487412    -2.3227437273     2.0573437740
   36      H       2.6869181927    -1.2235781754    -0.5640629791
   37      C       2.3081568745    -1.9399531093     0.1727291904
   38      H       0.9626419517    -3.3704230530     2.0768906111
   39      C       2.9617865095    -3.2327576019     0.2041524865
   40      H       2.6256894016    -3.9591801726     0.9512829370
   41      H       4.3323268518    -2.8872986655    -1.3973869849
   42      C       3.9622666967    -3.5811670861    -0.6358293230
   43      H       4.4384742396    -4.5631308972    -0.5897984509
 ----------------------------------------------------------------
 Molecular Point Group                 C1    NOp =  1
 Largest Abelian Subgroup              C1    NOp =  1
 Nuclear Repulsion Energy =  1745.4354159697 hartrees
 There are       82 alpha and       78 beta electrons
 Requested basis set is VDZ
 There are 147 shells and 231 basis functions

 Total QAlloc Memory Limit   2000 MB
 Mega-Array Size       188 MB
 MEM_STATIC part       192 MB
 A cutoff of  1.0D-12 yielded   8950 shell pairs
 There are     22134 function pairs (     22422 Cartesian)
 
 -------------------------------------------------------
 OpenMP Integral Computing Module                       
 Release: version 1.0, May 2013, Q-Chem Inc. Pittsburgh 
 -------------------------------------------------------
 Integral Job Info:
 Integral job number is                      11
 Integral operator is                         1
 short-range coefficients                     0
 long-range coefficients              100000000
 Omega coefficients                           0
 if combine SR and LR in K                    0
 Integral screening is                        0
 Integral computing path is                   2
 max size of driver memory is            800000
 size of driver memory is                593474
 size of scratch memory is             29634545
 max col of scratch BK array               1296
 max len of scratch array in speh3          155
 max len of scratch index in speh4           18
 max int batch size is                      520
 min int batch size is                       52
 fixed nKL is                                45
 max L of basis functions is                  2
 order of int derivative is                   0
 number of shells is                        147
 number of basis is                         233
 number of cartesian basis is               233
 number of contracted shell pairs          8950
 number of primitive shell pairs          25217
 maxK2 (contraction) of shell pair           36
 max number of K2 of shell pair               1
 max number of CS2 of shell pair           2130
 max number of PS2 of shell pair           5475
 mem total for path MDJ                  594182
 -------------------------------------------------------
 Smallest overlap matrix eigenvalue = 7.91E-04

 Scale SEOQF with 1.000000e-02/1.000000e-01/1.000000e-01

 Standard Electronic Orientation quadrupole field applied
 Nucleus-field energy     =     0.0000000270 hartrees
 Guess from superposition of atomic densities
 Warning:  Energy on first SCF cycle will be non-variational
 SAD guess density has 162.000000 electrons

 -----------------------------------------------------------------------
  General SCF calculation program by
  Eric Jon Sundstrom, Paul Horn, Yuezhi Mao, Dmitri Zuev, Alec White,
  David Stuck, Shaama M.S., Shane Yost, Joonho Lee, David Small,
  Daniel Levine, Susi Lehtola, Hugh Burton, Evgeny Epifanovsky
 -----------------------------------------------------------------------
 Exchange:  B97M-V      Correlation:  B97M-V
 Using SG-2 standard quadrature grid
 Nonlocal Correlation:  rVV10 with C = 0.0100 and b = 6.00 and scale = 1.00000
 Grid used for NLC:  SG-1 standard quadrature
 using 12 threads for integral computing
 -------------------------------------------------------
 OpenMP Integral computing Module                
 Release: version 1.0, May 2013, Q-Chem Inc. Pittsburgh 
 -------------------------------------------------------
 -------------------------------------------------------
 OpenMP BLAS3 based DFT computing Module                
 Release: version 1.0, May 2013, Q-Chem Inc. Pittsburgh 
 -------------------------------------------------------
 -------------------------------------------------------
 OpenMP BLAS3 based DFT computing Module                
 Release: version 1.0, May 2013, Q-Chem Inc. Pittsburgh 
 -------------------------------------------------------
 -------------------------------------------------------
 OpenMP BLAS3 based DFT computing Module                
 Release: version 1.0, May 2013, Q-Chem Inc. Pittsburgh 
 -------------------------------------------------------
 Nonlocal correlation = 0.579436210276
 A unrestricted SCF calculation will be
 performed using DIIS, GDM
 SCF converges when RMS gradient is below 1.0e-08
 ---------------------------------------
  Cycle       Energy         DIIS error
 ---------------------------------------
 Nonlocal correlation = 6.060328744257e-01
    1   -2039.4832182567      2.96e-02  
    2   -2035.6269220243      3.53e-03  Done DIIS. Switching to GDM
 ---------------------------------------
  Cycle       Energy        RMS Gradient
 ---------------------------------------
 Nonlocal correlation = 6.032481478885e-01
    1   -2035.6269220243      1.28e-01   Descent step
 Nonlocal correlation = 6.000847695445e-01
    2   -2035.9528841389      8.34e-02   Descent step
 Nonlocal correlation = 5.991558915527e-01
    3   -2036.0455533666      5.52e-02   Normal BFGS step
 Nonlocal correlation = 5.998040564779e-01
    4   -2036.0754302209      1.10e-01   Descent step
 Nonlocal correlation = 5.993511181257e-01
    5   -2035.9990203705      4.54e-01  Line search: overstep
 Nonlocal correlation = 5.996153586279e-01
    6   -2036.0980317464      1.19e-01   Dog-leg BFGS step
 Nonlocal correlation = 5.994917051973e-01
    7   -2036.0965568720      3.29e-01  Line search: overstep
 Nonlocal correlation = 5.998415859022e-01
    8   -2036.1246696650      6.33e-02   Dog-leg BFGS step
 Nonlocal correlation = 6.003923187333e-01
    9   -2036.1418431413      8.43e-02   Normal BFGS step
 Nonlocal correlation = 5.995843823824e-01
   10   -2036.1519992501      2.24e-01   Normal BFGS step
 Nonlocal correlation = 6.000359490837e-01
   11   -2036.1441954799      1.71e-01  Line search: overstep
 Nonlocal correlation = 5.995078090869e-01
   12   -2036.1611268381      4.80e-02   Normal BFGS step
 Nonlocal correlation = 5.998535993553e-01
   13   -2036.1507131138      2.14e-01  Line search: overstep
 Nonlocal correlation = 5.997436677416e-01
   14   -2036.1649000762      4.04e-02   Normal BFGS step
 Nonlocal correlation = 5.997365233106e-01
   15   -2036.1652326748      3.29e-02   Normal BFGS step
 Nonlocal correlation = 5.998067937664e-01
   16   -2036.1667313695      3.36e-02   Normal BFGS step
 Nonlocal correlation = 5.997699353802e-01
   17   -2036.1666480674      3.90e-02  Line search: overstep
 Nonlocal correlation = 5.997642825483e-01
   18   -2036.1675113495      1.44e-02   Normal BFGS step
 Nonlocal correlation = 5.996997323401e-01
   19   -2036.1677553224      1.03e-02   Normal BFGS step
 Nonlocal correlation = 5.996884932271e-01
   20   -2036.1679310890      6.72e-03   Normal BFGS step
 Nonlocal correlation = 5.996682933078e-01
   21   -2036.1680274080      2.57e-03   Normal BFGS step
 Nonlocal correlation = 5.996805732407e-01
   22   -2036.1680349191      3.16e-03   Normal BFGS step
 Nonlocal correlation = 5.996736941994e-01
   23   -2036.1680677776      1.56e-03   Normal BFGS step
 Nonlocal correlation = 5.996731659878e-01
   24   -2036.1680727262      1.19e-03   Normal BFGS step
 Nonlocal correlation = 5.996710951065e-01
   25   -2036.1680792599      1.04e-03   Normal BFGS step
 Nonlocal correlation = 5.996691138615e-01
   26   -2036.1680860399      8.78e-04   Normal BFGS step
 Nonlocal correlation = 5.996640865603e-01
   27   -2036.1680908970      8.38e-04   Normal BFGS step
 Nonlocal correlation = 5.996638465797e-01
   28   -2036.1680975086      1.24e-03   Normal BFGS step
 Nonlocal correlation = 5.996641056310e-01
   29   -2036.1681019736      1.00e-03   Normal BFGS step
 Nonlocal correlation = 5.996674432445e-01
   30   -2036.1681047156      1.41e-03   Normal BFGS step
 Nonlocal correlation = 5.996664040975e-01
   31   -2036.1681086950      1.23e-03   Normal BFGS step
 Nonlocal correlation = 5.996640982882e-01
   32   -2036.1681130214      7.20e-04   Normal BFGS step
 Nonlocal correlation = 5.996677860058e-01
   33   -2036.1681197356      8.62e-04   Normal BFGS step
 Nonlocal correlation = 5.996710386776e-01
   34   -2036.1681302811      1.08e-03   Normal BFGS step
 Nonlocal correlation = 5.996662195731e-01
   35   -2036.1681372065      1.25e-03   Normal BFGS step
 Nonlocal correlation = 5.996727526724e-01
   36   -2036.1681423005      1.01e-03   Normal BFGS step
 Nonlocal correlation = 5.996686434205e-01
   37   -2036.1681394250      4.32e-03  Line search: overstep
 Nonlocal correlation = 5.996736663520e-01
   38   -2036.1681440265      9.33e-04   Normal BFGS step
 Nonlocal correlation = 5.996728419154e-01
   39   -2036.1681455330      6.13e-04   Normal BFGS step
 Nonlocal correlation = 5.996692351775e-01
   40   -2036.1681469387      5.63e-04   Normal BFGS step
 Nonlocal correlation = 5.996700832707e-01
   41   -2036.1681481732      4.52e-04   Normal BFGS step
 Nonlocal correlation = 5.996727618212e-01
   42   -2036.1681494307      5.12e-04   Normal BFGS step
 Nonlocal correlation = 5.996730775724e-01
   43   -2036.1681501259      6.00e-04   Normal BFGS step
 Nonlocal correlation = 5.996729923834e-01
   44   -2036.1681507002      2.91e-04   Normal BFGS step
 Nonlocal correlation = 5.996724305663e-01
   45   -2036.1681508993      2.22e-04   Normal BFGS step
 Nonlocal correlation = 5.996730041611e-01
   46   -2036.1681511072      2.03e-04   Normal BFGS step
 Nonlocal correlation = 5.996727802723e-01
   47   -2036.1681512953      1.97e-04   Normal BFGS step
 Nonlocal correlation = 5.996739416274e-01
   48   -2036.1681514799      1.54e-04   Normal BFGS step
 Nonlocal correlation = 5.996748907567e-01
   49   -2036.1681516420      1.52e-04   Normal BFGS step
 Nonlocal correlation = 5.996748127469e-01
   50   -2036.1681517671      2.11e-04   Normal BFGS step
 Nonlocal correlation = 5.996748962294e-01
   51   -2036.1681519860      2.17e-04   Normal BFGS step
 Nonlocal correlation = 5.996762700865e-01
   52   -2036.1681522311      2.11e-04   Normal BFGS step
 Nonlocal correlation = 5.996785897505e-01
   53   -2036.1681524655      1.77e-04   Normal BFGS step
 Nonlocal correlation = 5.996787975271e-01
   54   -2036.1681527435      1.59e-04   Normal BFGS step
 Nonlocal correlation = 5.996790339864e-01
   55   -2036.1681530015      2.91e-04   Normal BFGS step
 Nonlocal correlation = 5.996812150115e-01
   56   -2036.1681532133      1.64e-04   Normal BFGS step
 Nonlocal correlation = 5.997214656028e-01
   57   -2036.1681536572      6.00e-04   Normal BFGS step
 Nonlocal correlation = 5.996839540109e-01
   58   -2036.1680693010      2.00e-02  Line search: overstep
 Nonlocal correlation = 5.997166947236e-01
   59   -2036.1681545480      1.11e-03  Line search: understep
 Nonlocal correlation = 5.996863862441e-01
   60   -2036.1681066209      1.69e-02  Line search: overstep
 Nonlocal correlation = 5.997129936020e-01
   61   -2036.1681557278      1.75e-03  Line search: understep
 Nonlocal correlation = 5.996884953993e-01
   62   -2036.1681278253      1.46e-02  Line search: overstep
 Nonlocal correlation = 5.997101033765e-01
   63   -2036.1681569700      2.41e-03  Line search: understep
 Nonlocal correlation = 5.996902949881e-01
   64   -2036.1681401665      1.29e-02  Line search: overstep
 Nonlocal correlation = 5.997078332369e-01
   65   -2036.1681580805      3.05e-03  Line search: understep
 Nonlocal correlation = 5.996918120999e-01
   66   -2036.1681475232      1.16e-02  Line search: overstep
 Nonlocal correlation = 5.997060411255e-01
   67   -2036.1681589704      3.63e-03  Line search: understep
 Nonlocal correlation = 5.996930798403e-01
   68   -2036.1681520131      1.06e-02  Line search: overstep
 Nonlocal correlation = 5.997046202395e-01
   69   -2036.1681596284      4.15e-03  Line search: understep
 Nonlocal correlation = 5.996871514714e-01
   70   -2036.1681548168      1.05e-02   Normal BFGS step
 Nonlocal correlation = 5.997168697255e-01
   71   -2036.1681611190      1.17e-03   Normal BFGS step
 Nonlocal correlation = 5.996983819003e-01
   72   -2036.1682369004      1.24e-02   Normal BFGS step
 Nonlocal correlation = 5.996846520988e-01
   73   -2036.1682856954      8.27e-03   Normal BFGS step
 Nonlocal correlation = 5.996655786668e-01
   74   -2036.1686227147      8.10e-03   Normal BFGS step
 Nonlocal correlation = 5.997032459420e-01
   75   -2036.1686963171      1.77e-02   Normal BFGS step
 Nonlocal correlation = 5.996712103678e-01
   76   -2036.1688995798      1.06e-02   Normal BFGS step
 Nonlocal correlation = 5.996897210829e-01
   77   -2036.1688174264      8.67e-03  Line search: overstep
 Nonlocal correlation = 5.996727121743e-01
   78   -2036.1690796227      5.08e-03   Normal BFGS step
 Nonlocal correlation = 5.996829719227e-01
   79   -2036.1690249443      8.86e-03  Line search: overstep
 Nonlocal correlation = 5.996640419561e-01
   80   -2036.1691170059      3.28e-03   Normal BFGS step
 Nonlocal correlation = 5.996928368045e-01
   81   -2036.1691213315      6.20e-03   Normal BFGS step
 Nonlocal correlation = 5.996947191385e-01
   82   -2036.1691491714      3.28e-03   Normal BFGS step
 Nonlocal correlation = 5.996829076409e-01
   83   -2036.1691524724      3.57e-03   Normal BFGS step
 Nonlocal correlation = 5.996917906760e-01
   84   -2036.1691742739      2.61e-03   Normal BFGS step
 Nonlocal correlation = 5.996932993007e-01
   85   -2036.1691819804      1.54e-03   Normal BFGS step
 Nonlocal correlation = 5.997006661642e-01
   86   -2036.1691900324      1.21e-03   Normal BFGS step
 Nonlocal correlation = 5.996988384981e-01
   87   -2036.1691979416      4.48e-03   Normal BFGS step
 Nonlocal correlation = 5.996903824793e-01
   88   -2036.1692040670      1.56e-03   Normal BFGS step
 Nonlocal correlation = 5.996907085973e-01
   89   -2036.1692075325      1.38e-03   Normal BFGS step
 Nonlocal correlation = 5.996943681487e-01
   90   -2036.1692114196      4.94e-04   Normal BFGS step
 Nonlocal correlation = 5.996907864488e-01
   91   -2036.1692138395      1.49e-03   Normal BFGS step
 Nonlocal correlation = 5.996866779748e-01
   92   -2036.1692153999      7.01e-04   Normal BFGS step
 Nonlocal correlation = 5.996881866505e-01
   93   -2036.1692160359      5.99e-04   Normal BFGS step
 Nonlocal correlation = 5.996889018076e-01
   94   -2036.1692166275      3.99e-04   Normal BFGS step
 Nonlocal correlation = 5.996902017711e-01
   95   -2036.1692170555      2.09e-04   Normal BFGS step
 Nonlocal correlation = 5.996887969337e-01
   96   -2036.1692174947      1.87e-04   Normal BFGS step
 Nonlocal correlation = 5.996891100408e-01
   97   -2036.1692177754      1.45e-04   Normal BFGS step
 Nonlocal correlation = 5.996892294790e-01
   98   -2036.1692178591      1.33e-04   Normal BFGS step
 Nonlocal correlation = 5.996886681336e-01
   99   -2036.1692179285      7.95e-05   Normal BFGS step
 Nonlocal correlation = 5.996889781834e-01
  100   -2036.1692179678      9.19e-05   Normal BFGS step
 Nonlocal correlation = 5.996892446110e-01
  101   -2036.1692180316      7.55e-05   Normal BFGS step
 Nonlocal correlation = 5.996892980517e-01
  102   -2036.1692180836      9.99e-05   Normal BFGS step
 Nonlocal correlation = 5.996890269861e-01
  103   -2036.1692181225      1.16e-04   Normal BFGS step
 Nonlocal correlation = 5.996887324627e-01
  104   -2036.1692181436      8.39e-05   Normal BFGS step
 Nonlocal correlation = 5.996888534221e-01
  105   -2036.1692181710      5.17e-05   Normal BFGS step
 Nonlocal correlation = 5.996889156455e-01
  106   -2036.1692181878      5.10e-05   Normal BFGS step
 Nonlocal correlation = 5.996890867999e-01
  107   -2036.1692182150      5.08e-05   Normal BFGS step
 Nonlocal correlation = 5.996888118253e-01
  108   -2036.1692182758      9.24e-05   Normal BFGS step
 Nonlocal correlation = 5.996889740546e-01
  109   -2036.1692183700      9.26e-05   Normal BFGS step
 Nonlocal correlation = 5.996892920389e-01
  110   -2036.1692185228      1.56e-04   Normal BFGS step
 Nonlocal correlation = 5.996886947508e-01
  111   -2036.1692187156      4.39e-04   Normal BFGS step
 Nonlocal correlation = 5.996887611004e-01
  112   -2036.1692188035      3.21e-04   Normal BFGS step
 Nonlocal correlation = 5.996888840830e-01
  113   -2036.1692188893      6.14e-05   Normal BFGS step
 Nonlocal correlation = 5.996887344856e-01
  114   -2036.1692189059      4.31e-05   Normal BFGS step
 Nonlocal correlation = 5.996887108268e-01
  115   -2036.1692189129      4.27e-05   Normal BFGS step
 Nonlocal correlation = 5.996887802060e-01
  116   -2036.1692189146      2.66e-05   Normal BFGS step
 Nonlocal correlation = 5.996887478763e-01
  117   -2036.1692189168      2.48e-05   Normal BFGS step
 Nonlocal correlation = 5.996887651211e-01
  118   -2036.1692189175      1.03e-05   Normal BFGS step
 Nonlocal correlation = 5.996887704315e-01
  119   -2036.1692189179      8.81e-06   Normal BFGS step
 Nonlocal correlation = 5.996887690573e-01
  120   -2036.1692189182      5.56e-06   Normal BFGS step
 Nonlocal correlation = 5.996887417919e-01
  121   -2036.1692189184      6.16e-06   Normal BFGS step
 Nonlocal correlation = 5.996887859013e-01
  122   -2036.1692189184      8.62e-06   Normal BFGS step
 Nonlocal correlation = 5.996887825739e-01
  123   -2036.1692189186      4.01e-06   Normal BFGS step
 Nonlocal correlation = 5.996887710432e-01
  124   -2036.1692189186      3.31e-06   Normal BFGS step
 Nonlocal correlation = 5.996887761919e-01
  125   -2036.1692189186      1.90e-06   Normal BFGS step
 Nonlocal correlation = 5.996887791828e-01
  126   -2036.1692189186      2.01e-06   Normal BFGS step
 Nonlocal correlation = 5.996887822156e-01
  127   -2036.1692189186      1.22e-06   Normal BFGS step
 Nonlocal correlation = 5.996887814777e-01
  128   -2036.1692189186      9.17e-07   Normal BFGS step
 Nonlocal correlation = 5.996887813202e-01
  129   -2036.1692189186      7.27e-07   Normal BFGS step
 Nonlocal correlation = 5.996887927807e-01
  130   -2036.1692189186      9.60e-07   Normal BFGS step
 Nonlocal correlation = 5.996887916573e-01
  131   -2036.1692189186      1.53e-06   Normal BFGS step
 Nonlocal correlation = 5.996887865823e-01
  132   -2036.1692189186      8.09e-07   Normal BFGS step
 Nonlocal correlation = 5.996887868395e-01
  133   -2036.1692189186      2.08e-06   Normal BFGS step
 Nonlocal correlation = 5.996887895230e-01
  134   -2036.1692189186      6.38e-07   Normal BFGS step
 Nonlocal correlation = 5.996887877301e-01
  135   -2036.1692189186      3.13e-07   Normal BFGS step
 Nonlocal correlation = 5.996887853784e-01
  136   -2036.1692189187      1.58e-07   Normal BFGS step
 Nonlocal correlation = 5.996887856219e-01
  137   -2036.1692189187      1.49e-07   Normal BFGS step
 Nonlocal correlation = 5.996887859835e-01
  138   -2036.1692189187      1.70e-07   Normal BFGS step
 Nonlocal correlation = 5.996887859433e-01
  139   -2036.1692189187      1.81e-07   Normal BFGS step
 Nonlocal correlation = 5.996887857671e-01
  140   -2036.1692189187      3.12e-08   Normal BFGS step
 Nonlocal correlation = 5.996887857611e-01
  141   -2036.1692189187      2.82e-08   Normal BFGS step
 Nonlocal correlation = 5.996887857808e-01
  142   -2036.1692189187      3.63e-08   Normal BFGS step
  /scratch/qcdevops/jenkins/workspace/build_qchem_linux_distrib/tags/qc511/qchem/libgscf/libgscf/opt/gdm.C::WARNING energy changes are now smaller than effective accuracy.
  /scratch/qcdevops/jenkins/workspace/build_qchem_linux_distrib/tags/qc511/qchem/libgscf/libgscf/opt/gdm.C::        calculation will continue, but THRESH should be increased
  /scratch/qcdevops/jenkins/workspace/build_qchem_linux_distrib/tags/qc511/qchem/libgscf/libgscf/opt/gdm.C::        or SCF_CONVERGENCE decreased. 
  /scratch/qcdevops/jenkins/workspace/build_qchem_linux_distrib/tags/qc511/qchem/libgscf/libgscf/opt/gdm.C::        effective_thresh = 9.16e-09
 Nonlocal correlation = 5.996887858655e-01
  143   -2036.1692189186      2.89e-08   Normal BFGS step
 Nonlocal correlation = 5.996887856840e-01
  144   -2036.1692189187      3.74e-08   Normal BFGS step
  /scratch/qcdevops/jenkins/workspace/build_qchem_linux_distrib/tags/qc511/qchem/libgscf/libgscf/opt/gdm.C::WARNING energy changes are now smaller than effective accuracy.
  /scratch/qcdevops/jenkins/workspace/build_qchem_linux_distrib/tags/qc511/qchem/libgscf/libgscf/opt/gdm.C::        calculation will continue, but THRESH should be increased
  /scratch/qcdevops/jenkins/workspace/build_qchem_linux_distrib/tags/qc511/qchem/libgscf/libgscf/opt/gdm.C::        or SCF_CONVERGENCE decreased. 
  /scratch/qcdevops/jenkins/workspace/build_qchem_linux_distrib/tags/qc511/qchem/libgscf/libgscf/opt/gdm.C::        effective_thresh = 9.16e-09
 Nonlocal correlation = 5.996887857074e-01
  145   -2036.1692189186      4.76e-08   Normal BFGS step
 Nonlocal correlation = 5.996887858512e-01
  146   -2036.1692189186      4.10e-08   Normal BFGS step
 Nonlocal correlation = 5.996887857164e-01
  147   -2036.1692189187      1.37e-08   Normal BFGS step
 Nonlocal correlation = 5.996887857948e-01
  148   -2036.1692189187      1.01e-08   Normal BFGS step
  /scratch/qcdevops/jenkins/workspace/build_qchem_linux_distrib/tags/qc511/qchem/libgscf/libgscf/opt/gdm.C::WARNING energy changes are now smaller than effective accuracy.
  /scratch/qcdevops/jenkins/workspace/build_qchem_linux_distrib/tags/qc511/qchem/libgscf/libgscf/opt/gdm.C::        calculation will continue, but THRESH should be increased
  /scratch/qcdevops/jenkins/workspace/build_qchem_linux_distrib/tags/qc511/qchem/libgscf/libgscf/opt/gdm.C::        or SCF_CONVERGENCE decreased. 
  /scratch/qcdevops/jenkins/workspace/build_qchem_linux_distrib/tags/qc511/qchem/libgscf/libgscf/opt/gdm.C::        effective_thresh = 9.16e-09
 Nonlocal correlation = 5.996887858645e-01
  149   -2036.1692189187      1.04e-08   Normal BFGS step
  /scratch/qcdevops/jenkins/workspace/build_qchem_linux_distrib/tags/qc511/qchem/libgscf/libgscf/opt/gdm.C::WARNING energy changes are now smaller than effective accuracy.
  /scratch/qcdevops/jenkins/workspace/build_qchem_linux_distrib/tags/qc511/qchem/libgscf/libgscf/opt/gdm.C::        calculation will continue, but THRESH should be increased
  /scratch/qcdevops/jenkins/workspace/build_qchem_linux_distrib/tags/qc511/qchem/libgscf/libgscf/opt/gdm.C::        or SCF_CONVERGENCE decreased. 
  /scratch/qcdevops/jenkins/workspace/build_qchem_linux_distrib/tags/qc511/qchem/libgscf/libgscf/opt/gdm.C::        effective_thresh = 9.16e-09
 Nonlocal correlation = 5.996887858631e-01
  150   -2036.1692189187      1.08e-08   Normal BFGS step
  /scratch/qcdevops/jenkins/workspace/build_qchem_linux_distrib/tags/qc511/qchem/libgscf/libgscf/opt/gdm.C::WARNING energy changes are now smaller than effective accuracy.
  /scratch/qcdevops/jenkins/workspace/build_qchem_linux_distrib/tags/qc511/qchem/libgscf/libgscf/opt/gdm.C::        calculation will continue, but THRESH should be increased
  /scratch/qcdevops/jenkins/workspace/build_qchem_linux_distrib/tags/qc511/qchem/libgscf/libgscf/opt/gdm.C::        or SCF_CONVERGENCE decreased. 
  /scratch/qcdevops/jenkins/workspace/build_qchem_linux_distrib/tags/qc511/qchem/libgscf/libgscf/opt/gdm.C::        effective_thresh = 9.16e-09
 Nonlocal correlation = 5.996887857968e-01
  151   -2036.1692189187      9.08e-09  Convergence criterion met
 ---------------------------------------
 SCF time:   CPU 106816.62s  wall 8941.00s 
<S^2> =          6.755940134
 SCF   energy in the final basis set =    -2036.1692189187
 Total energy in the final basis set =    -2036.1692189187
 
 --------------------------------------------------------------
 
                    Orbital Energies (a.u.)
 --------------------------------------------------------------
 
 Alpha MOs
 -- Occupied --
******* -30.468 -26.218 -26.190 -26.189 -19.498 -19.486 -10.535
-10.523 -10.491 -10.473 -10.473 -10.461 -10.459 -10.454 -10.433
-10.428 -10.413 -10.406 -10.389 -10.379 -10.379 -10.379  -3.914
 -2.686  -2.629  -2.629  -1.360  -1.160  -1.083  -1.065  -1.019
 -0.998  -0.982  -0.944  -0.923  -0.906  -0.869  -0.864  -0.853
 -0.815  -0.789  -0.776  -0.760  -0.744  -0.738  -0.736  -0.689
 -0.678  -0.673  -0.667  -0.660  -0.659  -0.650  -0.648  -0.643
 -0.638  -0.635  -0.634  -0.627  -0.616  -0.613  -0.610  -0.604
 -0.603  -0.603  -0.593  -0.591  -0.583  -0.571  -0.567  -0.560
 -0.554  -0.549  -0.539  -0.533  -0.503  -0.501  -0.499  -0.487
 -0.471  -0.468
 -- Virtual --
 -0.452  -0.361  -0.311  -0.276  -0.220  -0.190  -0.188  -0.181
 -0.169  -0.154  -0.151  -0.141  -0.136  -0.134  -0.117  -0.114
 -0.108  -0.104  -0.101  -0.093  -0.090  -0.082  -0.080  -0.071
 -0.067  -0.055  -0.050  -0.044  -0.040  -0.037  -0.031  -0.029
 -0.028  -0.018  -0.013  -0.004   0.003   0.016   0.024   0.035
  0.045   0.058   0.069   0.078   0.092   0.104   0.120   0.154
  0.159   0.178   0.190   0.201   0.213   0.224   0.235   0.238
  0.255   0.257   0.265   0.268   0.279   0.291   0.294   0.298
  0.303   0.315   0.346   0.356   0.367   0.372   0.380   0.387
  0.394   0.399   0.402   0.406   0.417   0.419   0.425   0.433
  0.440   0.443   0.452   0.461   0.463   0.469   0.469   0.472
  0.473   0.476   0.488   0.488   0.495   0.499   0.504   0.505
  0.511   0.511   0.519   0.525   0.533   0.533   0.534   0.542
  0.549   0.565   0.569   0.574   0.576   0.579   0.581   0.588
  0.591   0.595   0.606   0.616   0.631   0.644   0.654   0.677
  0.697   0.700   0.732   0.740   0.751   0.777   0.797   0.816
  0.843   0.868   0.874   0.893   0.905   0.918   0.941   0.955
  0.965   0.973   1.000   1.045   1.072   1.084   1.096   1.132
  1.155   1.214   1.264   1.332   1.607
 
 Beta MOs
 -- Occupied --
******* -30.387 -26.141 -26.126 -26.126 -19.497 -19.487 -10.535
-10.523 -10.493 -10.475 -10.474 -10.462 -10.459 -10.457 -10.433
-10.428 -10.413 -10.406 -10.389 -10.379 -10.379 -10.379  -3.719
 -2.457  -2.440  -2.440  -1.360  -1.160  -1.087  -1.069  -1.023
 -1.000  -0.985  -0.946  -0.927  -0.908  -0.869  -0.865  -0.855
 -0.819  -0.789  -0.777  -0.762  -0.744  -0.739  -0.737  -0.690
 -0.679  -0.674  -0.655  -0.650  -0.646  -0.642  -0.636  -0.628
 -0.617  -0.614  -0.611  -0.605  -0.605  -0.595  -0.592  -0.584
 -0.572  -0.568  -0.565  -0.560  -0.550  -0.539  -0.534  -0.508
 -0.503  -0.501  -0.500  -0.488  -0.484  -0.470
 -- Virtual --
 -0.464  -0.429  -0.429  -0.374  -0.371  -0.358  -0.327  -0.284
 -0.228  -0.194  -0.187  -0.179  -0.167  -0.151  -0.147  -0.142
 -0.136  -0.119  -0.117  -0.115  -0.108  -0.104  -0.102  -0.092
 -0.088  -0.082  -0.080  -0.071  -0.067  -0.056  -0.051  -0.046
 -0.041  -0.038  -0.033  -0.030  -0.029  -0.020  -0.015  -0.005
  0.001   0.014   0.022   0.033   0.044   0.057   0.068   0.076
  0.089   0.102   0.117   0.151   0.157   0.175   0.186   0.199
  0.211   0.221   0.233   0.235   0.252   0.254   0.263   0.266
  0.273   0.289   0.292   0.295   0.300   0.312   0.342   0.354
  0.366   0.369   0.379   0.386   0.392   0.397   0.400   0.406
  0.415   0.418   0.425   0.431   0.439   0.443   0.451   0.461
  0.462   0.468   0.469   0.472   0.473   0.476   0.487   0.488
  0.497   0.499   0.505   0.507   0.510   0.520   0.524   0.528
  0.533   0.534   0.548   0.560   0.569   0.570   0.576   0.582
  0.588   0.592   0.602   0.613   0.626   0.630   0.650   0.669
  0.687   0.693   0.698   0.704   0.714   0.732   0.738   0.747
  0.750   0.790   0.806   0.819   0.869   0.874   0.882   0.893
  0.908   0.922   0.943   0.956   0.965   0.976   0.999   1.050
  1.077   1.085   1.103   1.131   1.157   1.213   1.263   1.332
  1.607
 --------------------------------------------------------------
 
          Ground-State Mulliken Net Atomic Charges

     Atom                 Charge (a.u.)    Spin (a.u.)
  --------------------------------------------------------
      1 Fe                    0.926162       4.727412
      2 H                     0.183046      -0.012721
      3 H                     0.190329      -0.007962
      4 H                     0.165442      -0.004977
      5 C                    -0.203331       0.007683
      6 C                    -0.281942       0.008842
      7 H                     0.158928       0.000084
      8 H                     0.180350      -0.009016
      9 C                    -0.166662      -0.001349
     10 C                    -0.122380      -0.114055
     11 H                     0.141239       0.000607
     12 H                     0.129552       0.000072
     13 C                    -0.136234      -0.001108
     14 H                     0.126395      -0.000220
     15 C                     0.112980      -0.133567
     16 H                     0.144344       0.000039
     17 O                    -0.260223      -0.020176
     18 H                     0.140339      -0.000106
     19 C                    -0.400719       0.008531
     20 C                    -0.211917      -0.007896
     21 C                     0.077553       0.008258
     22 H                     0.157427      -0.006955
     23 O                    -0.405423       0.007118
     24 C                     0.120173       0.029737
     25 H                     0.166002      -0.000939
     26 C                    -0.243766      -0.011300
     27 H                     0.150077       0.000011
     28 H                     0.126306       0.000600
     29 H                     0.147918      -0.003354
     30 H                     0.169067      -0.001515
     31 H                     0.172503      -0.008189
     32 C                    -0.045583      -0.160278
     33 H                     0.194537      -0.010774
     34 H                     0.107176      -0.000056
     35 C                    -0.283632       0.008070
     36 H                     0.107510       0.005464
     37 C                    -0.063116      -0.070086
     38 H                     0.176145       0.000751
     39 C                    -0.057551      -0.001111
     40 H                     0.157217       0.001788
     41 H                     0.162828       0.014153
     42 C                    -0.105958      -0.256574
     43 H                     0.196893       0.015067
  --------------------------------------------------------
  Sum of atomic charges =     2.000000
  Sum of spin   charges =     4.000000

 -----------------------------------------------------------------
                    Cartesian Multipole Moments
 -----------------------------------------------------------------
    Charge (ESU x 10^10)
                 9.6064
    Dipole Moment (Debye)
         X      11.0868      Y       2.3139      Z       1.1919
       Tot      11.3882
    Quadrupole Moments (Debye-Ang)
        XX     -14.4938     XY       6.3466     YY     -53.5156
        XZ      -9.1263     YZ      -0.4302     ZZ    -104.6977
    Octopole Moments (Debye-Ang^2)
       XXX     248.3436    XXY      77.1579    XYY     212.9979
       YYY      57.2890    XXZ     -44.1955    XYZ     -22.2787
       YYZ      -1.4534    XZZ      24.7263    YZZ      16.1262
       ZZZ       2.7331
    Hexadecapole Moments (Debye-Ang^3)
      XXXX   -3684.3516   XXXY     294.6459   XXYY    -464.0149
      XYYY     104.0097   YYYY   -1882.8807   XXXZ    -230.9055
      XXYZ      43.2739   XYYZ     -96.7872   YYYZ     -54.3618
      XXZZ    -957.1145   XYZZ      65.4328   YYZZ    -541.9982
      XZZZ     -30.5509   YZZZ     -31.6834   ZZZZ    -934.5228
 -----------------------------------------------------------------
 Calculating analytic gradient of the SCF energy
 Gradient of SCF Energy
            1           2           3           4           5           6
    1   0.0084317  -0.0016424  -0.0001307  -0.0008169  -0.0056061  -0.0014002
    2   0.0064519  -0.0013021   0.0011905  -0.0028220   0.0080781   0.0045767
    3  -0.0020598   0.0002996  -0.0014493   0.0010334  -0.0006682   0.0054433
            7           8           9          10          11          12
    1  -0.0023459   0.0016740   0.0014340   0.0177840   0.0010896   0.0003080
    2   0.0003281  -0.0007711   0.0022861  -0.0322271  -0.0009903   0.0010484
    3  -0.0002684  -0.0000911   0.0016408  -0.0275057  -0.0013755   0.0002841
           13          14          15          16          17          18
    1   0.0022614   0.0014033  -0.0158616  -0.0010475  -0.0012390   0.0008543
    2  -0.0019075  -0.0005817   0.0268598  -0.0011359  -0.0034689   0.0010171
    3  -0.0008526  -0.0003139   0.0268918  -0.0006391   0.0020678   0.0002666
           19          20          21          22          23          24
    1   0.0028456  -0.0042499   0.0162936  -0.0015947  -0.0109773  -0.0089134
    2  -0.0039414  -0.0026047   0.0019464   0.0000126  -0.0080960   0.0113510
    3  -0.0005930   0.0019841   0.0128117   0.0019506   0.0037454  -0.0197449
           25          26          27          28          29          30
    1  -0.0004592  -0.0023126   0.0005138  -0.0003935   0.0016309  -0.0006841
    2  -0.0009249   0.0024767   0.0003285   0.0011199  -0.0025120  -0.0018958
    3  -0.0015900  -0.0045504   0.0004264   0.0011228   0.0001458  -0.0000348
           31          32          33          34          35          36
    1   0.0001372   0.0248787   0.0002838  -0.0006109  -0.0038517  -0.0001381
    2  -0.0005224  -0.0100404   0.0000321   0.0015395   0.0000378   0.0007840
    3  -0.0001610  -0.0209319   0.0004386   0.0010020   0.0052321   0.0019481
           37          38          39          40          41          42
    1  -0.0273680   0.0011340   0.0251852  -0.0004824  -0.0009658  -0.0158565
    2   0.0185762  -0.0016046  -0.0147546  -0.0007657   0.0005894   0.0025493
    3   0.0173987  -0.0003446  -0.0190329   0.0006409   0.0006001   0.0145862
           43
    1   0.0008084
    2  -0.0003088
    3   0.0002468
 Max gradient component =       3.223E-02
 RMS gradient           =       8.712E-03
 Gradient time:  CPU 1712.57 s  wall 252.00 s
 Geometry Optimization Parameters
   NAtoms,    NIC,     NZ,  NCons,   NDum,   NFix, NCnnct, MaxDiis
       43     329       0       0       0       0       0       0


** GEOMETRY OPTIMIZATION IN DELOCALIZED INTERNAL COORDINATES **
   Searching for a Minimum

   Optimization Cycle:   1

                       Coordinates (Angstroms)
     ATOM                X               Y               Z
      1  Fe        3.4377452441    2.6499476290   -0.3933446410
      2  H        -4.1045243702    2.2074238201    0.5102970831
      3  H        -1.8655117226    3.2049942691    1.3979398948
      4  H        -3.8245247313    1.4888698601    2.0900970775
      5  C        -3.6956004401    1.3023187539    1.0072240400
      6  C        -1.3942265976    2.2076486494    1.4767620930
      7  H        -5.5648515064    0.2565776070    0.6467555833
      8  H        -1.3865974743    1.9616704362    2.5555566758
      9  C        -4.4809549551    0.0703593331    0.5700790486
     10  C        -2.2174889076    1.2061771154    0.7104502749
     11  H        -0.3639244705    2.2992574068    1.1167374098
     12  H        -4.2926439441    0.5990584330   -1.5057541727
     13  C        -4.0903349606   -0.2783222451   -0.8608528672
     14  H        -4.2596826827   -0.7760570503    1.2468444173
     15  C        -1.7139643486    0.2949001704   -0.1683612310
     16  H        -4.6994241958   -1.1091378826   -1.2582547337
     17  O         0.5226408410    1.3545265687   -0.7256840230
     18  H        -2.2824135324    0.4943523019   -2.8412706531
     19  C        -2.5980455985   -0.6521168413   -0.9963110809
     20  C        -2.2430780237   -0.5532670084   -2.4968762434
     21  C        -0.2455006582    0.1090563128   -0.3714003476
     22  H         0.3517887879    0.2512100757    1.7531641418
     23  O         1.6893275143    0.8254758578    0.1924845935
     24  C         0.7304518603   -0.1476534301    0.7969006273
     25  H        -2.9711064994   -1.1379770064   -3.0860562431
     26  C        -2.3758709723   -2.1054212432   -0.5243367800
     27  H        -2.7079300540   -2.2433669239    0.5184109939
     28  H        -1.2429777076   -0.9522993459   -2.7280470420
     29  H        -0.0423170518   -0.6305113665   -1.1585881793
     30  H        -2.9374274221   -2.8110038265   -1.1615854821
     31  H        -0.4663968982   -2.3198437275    1.9369924623
     32  C         1.2943513359   -1.5176189021    0.9757329342
     33  H         0.8362754264   -1.8855314275    3.0532596444
     34  H        -1.3095631109   -2.3893672983   -0.5753074836
     35  C         0.6331487412   -2.3227437273    2.0573437740
     36  H         2.6869181927   -1.2235781754   -0.5640629791
     37  C         2.3081568745   -1.9399531093    0.1727291904
     38  H         0.9626419517   -3.3704230530    2.0768906111
     39  C         2.9617865095   -3.2327576019    0.2041524865
     40  H         2.6256894016   -3.9591801726    0.9512829370
     41  H         4.3323268518   -2.8872986655   -1.3973869849
     42  C         3.9622666967   -3.5811670861   -0.6358293230
     43  H         4.4384742396   -4.5631308972   -0.5897984509
   Point Group: c1    Number of degrees of freedom:   123


   Energy is  -2036.169218919


 Attempting to Generate Delocalized Internal Coordinates

123 Hessian modes will be used to form the next step
  Hessian Eigenvalues:
     0.003207    0.003346    0.004159    0.005206    0.008389    0.008402
     0.008945    0.009967    0.010206    0.011521    0.011752    0.014639
     0.015819    0.015927    0.021819    0.022388    0.027631    0.028756
     0.028756    0.030393    0.032112    0.037454    0.038990    0.043453
     0.044907    0.047421    0.048189    0.049685    0.051694    0.053064
     0.053439    0.054359    0.055165    0.056474    0.059841    0.060278
     0.068928    0.069030    0.070072    0.073574    0.075410    0.078365
     0.078911    0.083988    0.085447    0.095691    0.096829    0.098651
     0.116848    0.121083    0.131224    0.133956    0.154919    0.159983
     0.159999    0.160000    0.160000    0.160000    0.160000    0.160000
     0.160000    0.160000    0.160000    0.160000    0.160000    0.160000
     0.160000    0.160000    0.160000    0.160866    0.188626    0.205120
     0.217540    0.220000    0.220007    0.230097    0.245947    0.249852
     0.249947    0.249974    0.250000    0.271347    0.273209    0.280681
     0.281283    0.281596    0.287449    0.294749    0.297825    0.306670
     0.317592    0.321929    0.322666    0.325395    0.328629    0.329725
     0.329772    0.329883    0.330110    0.330147    0.330195    0.330377
     0.331739    0.332052    0.332209    0.332261    0.332324    0.333005
     0.333371    0.333522    0.334130    0.335385    0.337875    0.338547
     0.342150    0.342158    0.342499    0.342751    0.345468    0.383780
     0.505397    0.528449    0.545969

 Minimum Search - Taking Simple RFO Step
 Searching for Lamda that Minimizes Along All modes
 Value Taken    Lamda =  -0.01103596
 Step Taken.  Stepsize is  0.293888

                             Maximum     Tolerance    Cnvgd?
         Gradient           0.022811      0.000300      NO
         Displacement       0.086162      0.001200      NO
         Energy change     *********      0.000001      NO


 New Cartesian Coordinates Obtained by Inverse Iteration

 Displacement from previous Coordinates is:  1.012595
 ----------------------------------------------------------------
             Standard Nuclear Orientation (Angstroms)
    I     Atom           X                Y                Z
 ----------------------------------------------------------------
    1      Fe      3.3526373077     2.6125492540    -0.4789960979
    2      H      -4.1150170607     2.1679915713     0.5353065628
    3      H      -1.9303257638     3.1888645922     1.4884816385
    4      H      -3.8359137938     1.4500013005     2.1069105282
    5      C      -3.7025216930     1.2600729879     1.0261696309
    6      C      -1.4371272463     2.2022462071     1.5349342025
    7      H      -5.5483415619     0.1890176689     0.6399246546
    8      H      -1.4545981565     1.9254660505     2.6059630458
    9      C      -4.4652330150     0.0200054053     0.5638273340
   10      C      -2.2334368921     1.2160536198     0.7357267512
   11      H      -0.4031223103     2.3335808410     1.2055067558
   12      H      -4.2898973526     0.5824848671    -1.5082878539
   13      C      -4.0672958710    -0.2952913599    -0.8723409675
   14      H      -4.2408278315    -0.8319489162     1.2312285215
   15      C      -1.7031256815     0.3065554217    -0.1825360146
   16      H      -4.6571259413    -1.1320169564    -1.2792226290
   17      O       0.5200038399     1.3781051390    -0.7538980850
   18      H      -2.2538265706     0.5325242093    -2.8527333699
   19      C      -2.5659661007    -0.6393889755    -1.0147675788
   20      C      -2.1927080477    -0.5145484406    -2.5141609039
   21      C      -0.2458457004     0.1294264547    -0.3915183076
   22      H       0.3998448877     0.3050464811     1.7453250579
   23      O       1.7048663945     0.8503186407     0.1489482989
   24      C       0.7566338697    -0.1185575982     0.7952688141
   25      H      -2.9120851983    -1.1038471308    -3.1046844148
   26      C      -2.3048493553    -2.0952381388    -0.5483299857
   27      H      -2.6382843254    -2.2557985061     0.4904059715
   28      H      -1.1876992316    -0.9012495095    -2.7521751099
   29      H      -0.0544989277    -0.5996443316    -1.1874254316
   30      H      -2.8546811153    -2.7948786057    -1.1980152617
   31      H      -0.4493499368    -2.2070317576     2.0100815115
   32      C       1.3010900076    -1.4825567132     0.9940961522
   33      H       0.8930800327    -1.7924223824     3.0809604930
   34      H      -1.2344898591    -2.3678680726    -0.6098533701
   35      C       0.6525319735    -2.2449360347     2.1011228699
   36      H       2.6595603850    -1.2968802650    -0.6364567011
   37      C       2.2968018870    -1.9607755327     0.1572571851
   38      H       0.9462992572    -3.2998047831     2.1373839719
   39      C       2.9062008530    -3.2507351046     0.2311010680
   40      H       2.5877091024    -3.9317779267     1.0248080924
   41      H       4.2184502293    -3.0180297059    -1.4710131056
   42      C       3.8673784863    -3.6631626769    -0.6584950929
   43      H       4.3122136592    -4.6578247007    -0.5968497776
 ----------------------------------------------------------------
 Molecular Point Group                 C1    NOp =  1
 Largest Abelian Subgroup              C1    NOp =  1
 Nuclear Repulsion Energy =  1750.3059811797 hartrees
 There are       82 alpha and       78 beta electrons
 Applying Cartesian multipole field
    Component          Value
    ---------          -----
     (2,0,0)        1.00000E-12
     (0,2,0)        2.00000E-11
     (0,0,2)       -3.00000E-11
 Nucleus-field energy     =     0.0000000257 hartrees
 Requested basis set is VDZ
 There are 147 shells and 231 basis functions
 A cutoff of  1.0D-12 yielded   8964 shell pairs
 There are     22186 function pairs (     22475 Cartesian)
 Smallest overlap matrix eigenvalue = 8.16E-04
 Guess MOs from SCF MO coefficient file

 -----------------------------------------------------------------------
  General SCF calculation program by
  Eric Jon Sundstrom, Paul Horn, Yuezhi Mao, Dmitri Zuev, Alec White,
  David Stuck, Shaama M.S., Shane Yost, Joonho Lee, David Small,
  Daniel Levine, Susi Lehtola, Hugh Burton, Evgeny Epifanovsky
 -----------------------------------------------------------------------
 Exchange:  B97M-V      Correlation:  B97M-V
 Using SG-2 standard quadrature grid
 Nonlocal Correlation:  rVV10 with C = 0.0100 and b = 6.00 and scale = 1.00000
 Grid used for NLC:  SG-1 standard quadrature
 using 12 threads for integral computing
 -------------------------------------------------------
 OpenMP Integral computing Module                
 Release: version 1.0, May 2013, Q-Chem Inc. Pittsburgh 
 -------------------------------------------------------
 -------------------------------------------------------
 OpenMP BLAS3 based DFT computing Module                
 Release: version 1.0, May 2013, Q-Chem Inc. Pittsburgh 
 -------------------------------------------------------
 -------------------------------------------------------
 OpenMP BLAS3 based DFT computing Module                
 Release: version 1.0, May 2013, Q-Chem Inc. Pittsburgh 
 -------------------------------------------------------
 -------------------------------------------------------
 OpenMP BLAS3 based DFT computing Module                
 Release: version 1.0, May 2013, Q-Chem Inc. Pittsburgh 
 -------------------------------------------------------
 Nonlocal correlation = 0.599589782115
 A unrestricted SCF calculation will be
 performed using DIIS, GDM
 SCF converges when RMS gradient is below 1.0e-08
 ---------------------------------------
  Cycle       Energy         DIIS error
 ---------------------------------------
 Nonlocal correlation = 5.996417921838e-01
    1   -2036.1672174672      3.84e-04  
    2   -2036.1725558933      2.86e-04  Done DIIS. Switching to GDM
 ---------------------------------------
  Cycle       Energy        RMS Gradient
 ---------------------------------------
 Nonlocal correlation = 5.993538281375e-01
    1   -2036.1725558933      1.47e-01   Normal BFGS step
 Nonlocal correlation = 5.995243053017e-01
    2   -2036.1330302428      2.88e-01  Line search: overstep
 Nonlocal correlation = 5.995419735565e-01
    3   -2036.1754499375      4.76e-02   Normal BFGS step
 Nonlocal correlation = 5.995542388557e-01
    4   -2036.1758082877      1.11e-02   Normal BFGS step
 Nonlocal correlation = 5.995473442566e-01
    5   -2036.1756998691      2.64e-02  Line search: overstep
 Nonlocal correlation = 5.995584462479e-01
    6   -2036.1760306079      9.60e-03   Normal BFGS step
 Nonlocal correlation = 5.995526512748e-01
    7   -2036.1760234506      5.40e-03  Line search: overstep
 Nonlocal correlation = 5.995476551840e-01
    8   -2036.1760730929      3.74e-03   Normal BFGS step
 Nonlocal correlation = 5.995506497836e-01
    9   -2036.1760608949      3.32e-03  Line search: overstep
 Nonlocal correlation = 5.995433925744e-01
   10   -2036.1760827860      1.11e-03   Normal BFGS step
 Nonlocal correlation = 5.995473578340e-01
   11   -2036.1760821361      1.41e-03  Line search: overstep
 Nonlocal correlation = 5.995483038069e-01
   12   -2036.1760842187      3.66e-04   Normal BFGS step
 Nonlocal correlation = 5.995492102771e-01
   13   -2036.1760845342      5.11e-04   Normal BFGS step
 Nonlocal correlation = 5.995488884068e-01
   14   -2036.1760849802      3.72e-04   Normal BFGS step
 Nonlocal correlation = 5.995477390843e-01
   15   -2036.1760853222      2.99e-04   Normal BFGS step
 Nonlocal correlation = 5.995482405311e-01
   16   -2036.1760855030      2.69e-04   Normal BFGS step
 Nonlocal correlation = 5.995494632298e-01
   17   -2036.1760856627      1.01e-04   Normal BFGS step
 Nonlocal correlation = 5.995489539360e-01
   18   -2036.1760857296      1.64e-04   Normal BFGS step
 Nonlocal correlation = 5.995485886279e-01
   19   -2036.1760857855      6.22e-05   Normal BFGS step
 Nonlocal correlation = 5.995488573335e-01
   20   -2036.1760858065      6.58e-05   Normal BFGS step
 Nonlocal correlation = 5.995494981305e-01
   21   -2036.1760858345      5.69e-05   Normal BFGS step
 Nonlocal correlation = 5.995495400015e-01
   22   -2036.1760858672      4.07e-05   Normal BFGS step
 Nonlocal correlation = 5.995497576691e-01
   23   -2036.1760859014      6.95e-05   Normal BFGS step
 Nonlocal correlation = 5.995496412969e-01
   24   -2036.1760859174      3.78e-05   Normal BFGS step
 Nonlocal correlation = 5.995491975883e-01
   25   -2036.1760859292      4.41e-05   Normal BFGS step
 Nonlocal correlation = 5.995489769685e-01
   26   -2036.1760859366      1.98e-05   Normal BFGS step
 Nonlocal correlation = 5.995490600346e-01
   27   -2036.1760859423      1.93e-05   Normal BFGS step
 Nonlocal correlation = 5.995489726049e-01
   28   -2036.1760859459      1.88e-05   Normal BFGS step
 Nonlocal correlation = 5.995489914036e-01
   29   -2036.1760859474      1.87e-05   Normal BFGS step
 Nonlocal correlation = 5.995490064796e-01
   30   -2036.1760859487      1.97e-05   Normal BFGS step
 Nonlocal correlation = 5.995490869250e-01
   31   -2036.1760859511      2.38e-05   Normal BFGS step
 Nonlocal correlation = 5.995488750949e-01
   32   -2036.1760859556      2.74e-05   Normal BFGS step
 Nonlocal correlation = 5.995489013355e-01
   33   -2036.1760859655      5.87e-05   Normal BFGS step
 Nonlocal correlation = 5.995486246692e-01
   34   -2036.1760859800      9.17e-05   Normal BFGS step
 Nonlocal correlation = 5.995487669216e-01
   35   -2036.1760859995      7.17e-05   Normal BFGS step
 Nonlocal correlation = 5.995489902743e-01
   36   -2036.1760860251      5.78e-05   Normal BFGS step
 Nonlocal correlation = 5.995489513186e-01
   37   -2036.1760860452      4.28e-05   Normal BFGS step
 Nonlocal correlation = 5.995490031008e-01
   38   -2036.1760860556      6.22e-05   Normal BFGS step
 Nonlocal correlation = 5.995490044191e-01
   39   -2036.1760860733      5.17e-05   Normal BFGS step
 Nonlocal correlation = 5.995490432610e-01
   40   -2036.1760860867      4.29e-05   Normal BFGS step
 Nonlocal correlation = 5.995489480683e-01
   41   -2036.1760860921      8.87e-05   Normal BFGS step
 Nonlocal correlation = 5.995489349242e-01
   42   -2036.1760861001      1.80e-05   Normal BFGS step
 Nonlocal correlation = 5.995489985937e-01
   43   -2036.1760861027      1.79e-05   Normal BFGS step
 Nonlocal correlation = 5.995489491623e-01
   44   -2036.1760861046      1.59e-05   Normal BFGS step
 Nonlocal correlation = 5.995489859219e-01
   45   -2036.1760861058      1.44e-05   Normal BFGS step
 Nonlocal correlation = 5.995490242732e-01
   46   -2036.1760861075      1.24e-05   Normal BFGS step
 Nonlocal correlation = 5.995490998829e-01
   47   -2036.1760861109      1.35e-05   Normal BFGS step
 Nonlocal correlation = 5.995490890441e-01
   48   -2036.1760861129      1.09e-05   Normal BFGS step
 Nonlocal correlation = 5.995491251738e-01
   49   -2036.1760861152      6.60e-06   Normal BFGS step
 Nonlocal correlation = 5.995490861694e-01
   50   -2036.1760861161      6.99e-06   Normal BFGS step
 Nonlocal correlation = 5.995490823434e-01
   51   -2036.1760861164      4.22e-06   Normal BFGS step
 Nonlocal correlation = 5.995490951730e-01
   52   -2036.1760861165      4.41e-06   Normal BFGS step
 Nonlocal correlation = 5.995491011339e-01
   53   -2036.1760861164      5.52e-06   Normal BFGS step
 Nonlocal correlation = 5.995490793104e-01
   54   -2036.1760861165      3.86e-06   Normal BFGS step
 Nonlocal correlation = 5.995490861804e-01
   55   -2036.1760861165      9.14e-06   Normal BFGS step
 Nonlocal correlation = 5.995490980687e-01
   56   -2036.1760861165      2.80e-06   Normal BFGS step
 Nonlocal correlation = 5.995490918620e-01
   57   -2036.1760861165      2.37e-06   Normal BFGS step
 Nonlocal correlation = 5.995490864186e-01
   58   -2036.1760861165      5.56e-07   Normal BFGS step
 Nonlocal correlation = 5.995490891409e-01
   59   -2036.1760861165      9.28e-07   Normal BFGS step
 Nonlocal correlation = 5.995490912760e-01
   60   -2036.1760861165      3.69e-07   Normal BFGS step
 Nonlocal correlation = 5.995490915652e-01
   61   -2036.1760861165      5.38e-07   Normal BFGS step
 Nonlocal correlation = 5.995490879226e-01
   62   -2036.1760861165      2.00e-07   Normal BFGS step
 Nonlocal correlation = 5.995490898099e-01
   63   -2036.1760861165      2.52e-07   Normal BFGS step
 Nonlocal correlation = 5.995490909554e-01
   64   -2036.1760861165      2.72e-07   Normal BFGS step
 Nonlocal correlation = 5.995490909490e-01
   65   -2036.1760861165      1.40e-07   Normal BFGS step
 Nonlocal correlation = 5.995490917326e-01
   66   -2036.1760861165      2.21e-07   Normal BFGS step
 Nonlocal correlation = 5.995490922732e-01
   67   -2036.1760861165      2.84e-07   Normal BFGS step
  /scratch/qcdevops/jenkins/workspace/build_qchem_linux_distrib/tags/qc511/qchem/libgscf/libgscf/opt/gdm.C::WARNING energy changes are now smaller than effective accuracy.
  /scratch/qcdevops/jenkins/workspace/build_qchem_linux_distrib/tags/qc511/qchem/libgscf/libgscf/opt/gdm.C::        calculation will continue, but THRESH should be increased
  /scratch/qcdevops/jenkins/workspace/build_qchem_linux_distrib/tags/qc511/qchem/libgscf/libgscf/opt/gdm.C::        or SCF_CONVERGENCE decreased. 
  /scratch/qcdevops/jenkins/workspace/build_qchem_linux_distrib/tags/qc511/qchem/libgscf/libgscf/opt/gdm.C::        effective_thresh = 1.08e-08
 Nonlocal correlation = 5.995490911642e-01
   68   -2036.1760861165      1.13e-07   Normal BFGS step
 Nonlocal correlation = 5.995490913553e-01
   69   -2036.1760861165      9.03e-08   Normal BFGS step
  /scratch/qcdevops/jenkins/workspace/build_qchem_linux_distrib/tags/qc511/qchem/libgscf/libgscf/opt/gdm.C::WARNING energy changes are now smaller than effective accuracy.
  /scratch/qcdevops/jenkins/workspace/build_qchem_linux_distrib/tags/qc511/qchem/libgscf/libgscf/opt/gdm.C::        calculation will continue, but THRESH should be increased
  /scratch/qcdevops/jenkins/workspace/build_qchem_linux_distrib/tags/qc511/qchem/libgscf/libgscf/opt/gdm.C::        or SCF_CONVERGENCE decreased. 
  /scratch/qcdevops/jenkins/workspace/build_qchem_linux_distrib/tags/qc511/qchem/libgscf/libgscf/opt/gdm.C::        effective_thresh = 1.08e-08
 Nonlocal correlation = 5.995490913721e-01
   70   -2036.1760861165      5.84e-08   Normal BFGS step
 Nonlocal correlation = 5.995490908070e-01
   71   -2036.1760861165      7.06e-08   Normal BFGS step
  /scratch/qcdevops/jenkins/workspace/build_qchem_linux_distrib/tags/qc511/qchem/libgscf/libgscf/opt/gdm.C::WARNING energy changes are now smaller than effective accuracy.
  /scratch/qcdevops/jenkins/workspace/build_qchem_linux_distrib/tags/qc511/qchem/libgscf/libgscf/opt/gdm.C::        calculation will continue, but THRESH should be increased
  /scratch/qcdevops/jenkins/workspace/build_qchem_linux_distrib/tags/qc511/qchem/libgscf/libgscf/opt/gdm.C::        or SCF_CONVERGENCE decreased. 
  /scratch/qcdevops/jenkins/workspace/build_qchem_linux_distrib/tags/qc511/qchem/libgscf/libgscf/opt/gdm.C::        effective_thresh = 1.08e-08
 Nonlocal correlation = 5.995490906158e-01
   72   -2036.1760861165      6.17e-08   Normal BFGS step
 Nonlocal correlation = 5.995490907605e-01
   73   -2036.1760861165      1.34e-07   Normal BFGS step
 Nonlocal correlation = 5.995490907645e-01
   74   -2036.1760861165      1.46e-08   Normal BFGS step
 Nonlocal correlation = 5.995490907324e-01
   75   -2036.1760861165      4.46e-08   Normal BFGS step
 Nonlocal correlation = 5.995490907541e-01
   76   -2036.1760861165      3.13e-08   Normal BFGS step
  /scratch/qcdevops/jenkins/workspace/build_qchem_linux_distrib/tags/qc511/qchem/libgscf/libgscf/opt/gdm.C::WARNING energy changes are now smaller than effective accuracy.
  /scratch/qcdevops/jenkins/workspace/build_qchem_linux_distrib/tags/qc511/qchem/libgscf/libgscf/opt/gdm.C::        calculation will continue, but THRESH should be increased
  /scratch/qcdevops/jenkins/workspace/build_qchem_linux_distrib/tags/qc511/qchem/libgscf/libgscf/opt/gdm.C::        or SCF_CONVERGENCE decreased. 
  /scratch/qcdevops/jenkins/workspace/build_qchem_linux_distrib/tags/qc511/qchem/libgscf/libgscf/opt/gdm.C::        effective_thresh = 1.08e-08
 Nonlocal correlation = 5.995490907121e-01
   77   -2036.1760861165      5.65e-08   Normal BFGS step
 Nonlocal correlation = 5.995490907618e-01
   78   -2036.1760861165      8.91e-09  Convergence criterion met
 ---------------------------------------
 SCF time:   CPU 56124.93s  wall 4697.00s 
<S^2> =          6.710536865
 SCF   energy in the final basis set =    -2036.1760861165
 Total energy in the final basis set =    -2036.1760861165
 
 --------------------------------------------------------------
 
                    Orbital Energies (a.u.)
 --------------------------------------------------------------
 
 Alpha MOs
 -- Occupied --
******* -30.457 -26.207 -26.180 -26.179 -19.498 -19.486 -10.536
-10.523 -10.493 -10.478 -10.474 -10.462 -10.459 -10.457 -10.434
-10.428 -10.415 -10.408 -10.390 -10.381 -10.380 -10.380  -3.904
 -2.675  -2.621  -2.620  -1.355  -1.159  -1.082  -1.065  -1.019
 -1.001  -0.981  -0.943  -0.921  -0.907  -0.870  -0.867  -0.854
 -0.817  -0.790  -0.777  -0.761  -0.745  -0.738  -0.734  -0.689
 -0.679  -0.674  -0.665  -0.652  -0.650  -0.648  -0.647  -0.645
 -0.638  -0.634  -0.628  -0.627  -0.616  -0.614  -0.610  -0.605
 -0.604  -0.595  -0.595  -0.591  -0.584  -0.574  -0.569  -0.563
 -0.554  -0.551  -0.540  -0.536  -0.505  -0.503  -0.502  -0.489
 -0.466  -0.464
 -- Virtual --
 -0.446  -0.363  -0.316  -0.281  -0.223  -0.193  -0.189  -0.182
 -0.168  -0.155  -0.151  -0.144  -0.138  -0.135  -0.118  -0.115
 -0.109  -0.104  -0.102  -0.095  -0.093  -0.084  -0.081  -0.072
 -0.068  -0.056  -0.050  -0.044  -0.039  -0.036  -0.032  -0.030
 -0.029  -0.019  -0.015  -0.004  -0.000   0.015   0.024   0.035
  0.043   0.057   0.065   0.075   0.089   0.102   0.117   0.150
  0.156   0.178   0.185   0.200   0.209   0.224   0.234   0.235
  0.249   0.256   0.261   0.268   0.276   0.288   0.291   0.297
  0.302   0.313   0.344   0.357   0.364   0.371   0.380   0.388
  0.394   0.398   0.401   0.405   0.418   0.419   0.425   0.432
  0.439   0.444   0.452   0.460   0.465   0.468   0.470   0.471
  0.473   0.477   0.487   0.487   0.494   0.498   0.502   0.506
  0.512   0.515   0.519   0.524   0.529   0.532   0.535   0.540
  0.548   0.563   0.567   0.569   0.573   0.581   0.583   0.584
  0.590   0.599   0.606   0.616   0.631   0.641   0.649   0.677
  0.694   0.699   0.729   0.736   0.752   0.778   0.797   0.816
  0.844   0.861   0.877   0.894   0.903   0.917   0.939   0.953
  0.957   0.973   0.995   1.044   1.072   1.077   1.094   1.127
  1.156   1.209   1.257   1.326   1.604
 
 Beta MOs
 -- Occupied --
******* -30.377 -26.130 -26.116 -26.116 -19.497 -19.487 -10.536
-10.524 -10.495 -10.479 -10.476 -10.463 -10.460 -10.459 -10.434
-10.428 -10.414 -10.408 -10.391 -10.381 -10.380 -10.380  -3.710
 -2.449  -2.433  -2.432  -1.355  -1.159  -1.085  -1.068  -1.022
 -1.002  -0.983  -0.944  -0.925  -0.909  -0.871  -0.867  -0.856
 -0.820  -0.790  -0.778  -0.763  -0.744  -0.738  -0.735  -0.690
 -0.680  -0.675  -0.657  -0.650  -0.648  -0.643  -0.636  -0.629
 -0.618  -0.615  -0.611  -0.607  -0.605  -0.596  -0.592  -0.585
 -0.576  -0.570  -0.565  -0.562  -0.552  -0.540  -0.536  -0.506
 -0.503  -0.502  -0.500  -0.490  -0.479  -0.465
 -- Virtual --
 -0.458  -0.422  -0.420  -0.371  -0.368  -0.358  -0.331  -0.288
 -0.230  -0.196  -0.187  -0.179  -0.166  -0.152  -0.149  -0.145
 -0.137  -0.120  -0.118  -0.116  -0.109  -0.105  -0.103  -0.093
 -0.090  -0.084  -0.082  -0.073  -0.068  -0.057  -0.051  -0.046
 -0.040  -0.037  -0.033  -0.032  -0.029  -0.021  -0.016  -0.006
 -0.002   0.014   0.022   0.033   0.043   0.056   0.064   0.073
  0.086   0.100   0.114   0.148   0.154   0.175   0.182   0.199
  0.207   0.222   0.232   0.232   0.247   0.253   0.260   0.266
  0.271   0.287   0.289   0.293   0.299   0.310   0.340   0.355
  0.362   0.369   0.380   0.387   0.392   0.396   0.399   0.405
  0.417   0.417   0.424   0.430   0.438   0.444   0.452   0.460
  0.463   0.467   0.469   0.470   0.473   0.477   0.486   0.487
  0.494   0.497   0.504   0.508   0.512   0.519   0.524   0.527
  0.531   0.531   0.546   0.556   0.565   0.568   0.573   0.577
  0.587   0.598   0.604   0.614   0.622   0.629   0.642   0.666
  0.684   0.693   0.697   0.703   0.710   0.730   0.735   0.747
  0.751   0.792   0.807   0.825   0.864   0.878   0.884   0.895
  0.906   0.922   0.942   0.954   0.957   0.976   0.997   1.050
  1.075   1.083   1.104   1.127   1.158   1.209   1.257   1.327
  1.604
 --------------------------------------------------------------
 
          Ground-State Mulliken Net Atomic Charges

     Atom                 Charge (a.u.)    Spin (a.u.)
  --------------------------------------------------------
      1 Fe                    0.930801       4.674561
      2 H                     0.184512      -0.011358
      3 H                     0.190759      -0.007125
      4 H                     0.165921      -0.004111
      5 C                    -0.216358       0.008313
      6 C                    -0.280619       0.009044
      7 H                     0.158297       0.000070
      8 H                     0.181279      -0.007764
      9 C                    -0.161689      -0.001347
     10 C                    -0.096186      -0.107846
     11 H                     0.139192       0.000465
     12 H                     0.130813       0.000161
     13 C                    -0.133413      -0.000887
     14 H                     0.127887      -0.000175
     15 C                     0.101485      -0.110882
     16 H                     0.143727      -0.000093
     17 O                    -0.264157      -0.017733
     18 H                     0.141745      -0.000004
     19 C                    -0.410682       0.008132
     20 C                    -0.212868      -0.006340
     21 C                     0.075797       0.004735
     22 H                     0.155552      -0.006310
     23 O                    -0.420026       0.006984
     24 C                     0.131362       0.033164
     25 H                     0.164615      -0.000785
     26 C                    -0.244571      -0.008734
     27 H                     0.150336       0.000070
     28 H                     0.128524       0.000507
     29 H                     0.146628      -0.002829
     30 H                     0.167353      -0.001324
     31 H                     0.172051      -0.007433
     32 C                    -0.044957      -0.152197
     33 H                     0.194912      -0.010428
     34 H                     0.109278      -0.000076
     35 C                    -0.288705       0.008577
     36 H                     0.111016       0.005354
     37 C                    -0.057000      -0.073608
     38 H                     0.176121       0.000729
     39 C                    -0.069562       0.014934
     40 H                     0.158240       0.000968
     41 H                     0.167058       0.014690
     42 C                    -0.101058      -0.267704
     43 H                     0.196588       0.015636
  --------------------------------------------------------
  Sum of atomic charges =     2.000000
  Sum of spin   charges =     4.000000

 -----------------------------------------------------------------
                    Cartesian Multipole Moments
 -----------------------------------------------------------------
    Charge (ESU x 10^10)
                 9.6064
    Dipole Moment (Debye)
         X      10.4693      Y       2.0417      Z       0.9918
       Tot      10.7125
    Quadrupole Moments (Debye-Ang)
        XX     -17.7307     XY       4.2733     YY     -53.8091
        XZ     -10.5819     YZ      -0.5636     ZZ    -103.2561
    Octopole Moments (Debye-Ang^2)
       XXX     229.1318    XXY      71.1877    XYY     210.1646
       YYY      50.6682    XXZ     -44.7297    XYZ     -24.3255
       YYZ      -3.0711    XZZ      26.9641    YZZ      16.7322
       ZZZ       6.6838
    Hexadecapole Moments (Debye-Ang^3)
      XXXX   -3667.9298   XXXY     282.8078   XXYY    -473.6379
      XYYY      81.4792   YYYY   -1864.2664   XXXZ    -230.1856
      XXYZ      39.1379   XYYZ    -106.0442   YYYZ     -47.8685
      XXZZ    -934.1818   XYZZ      65.3840   YYZZ    -538.7828
      XZZZ     -19.9287   YZZZ     -27.1322   ZZZZ    -964.7112
 -----------------------------------------------------------------
 Calculating analytic gradient of the SCF energy
 Gradient of SCF Energy
            1           2           3           4           5           6
    1   0.0094797   0.0005062   0.0000177   0.0007769  -0.0019229  -0.0009755
    2   0.0076540  -0.0007195  -0.0005018  -0.0011051   0.0044926   0.0030533
    3  -0.0027302   0.0004139  -0.0005385   0.0003644   0.0004956   0.0037133
            7           8           9          10          11          12
    1   0.0000235   0.0001855  -0.0007034   0.0012376  -0.0008209   0.0000757
    2  -0.0002927  -0.0002443  -0.0002624  -0.0037078   0.0002318   0.0002578
    3  -0.0001369  -0.0002807   0.0006322  -0.0045237   0.0004948   0.0000892
           13          14          15          16          17          18
    1  -0.0006500   0.0003026  -0.0044411   0.0000955  -0.0004928   0.0002864
    2   0.0002205  -0.0001662   0.0019748   0.0001971  -0.0031751   0.0001050
    3   0.0001827   0.0000007   0.0029249   0.0000051  -0.0015093  -0.0002063
           19          20          21          22          23          24
    1   0.0014888  -0.0002524   0.0069452   0.0010065  -0.0114218  -0.0034144
    2  -0.0017250  -0.0002245  -0.0024333  -0.0009932  -0.0065471   0.0064094
    3  -0.0010145   0.0003121   0.0025496   0.0012881   0.0040598  -0.0059029
           25          26          27          28          29          30
    1   0.0003825  -0.0004069   0.0002210   0.0008172  -0.0015392   0.0002460
    2   0.0001088   0.0005523  -0.0003026   0.0003558  -0.0000338   0.0002634
    3   0.0003892  -0.0010802   0.0003478   0.0000373  -0.0016699   0.0003801
           31          32          33          34          35          36
    1   0.0001881   0.0040243   0.0002761   0.0004809  -0.0016967   0.0010680
    2  -0.0001170  -0.0051205   0.0002184   0.0001200   0.0005770  -0.0006570
    3  -0.0001735  -0.0016269  -0.0005087   0.0003743   0.0014049  -0.0004556
           37          38          39          40          41          42
    1  -0.0032160   0.0005194   0.0027822  -0.0013777   0.0002347  -0.0005870
    2   0.0027471   0.0000120  -0.0023808   0.0006598  -0.0002138   0.0002956
    3   0.0037093  -0.0002267  -0.0023293   0.0006099  -0.0004717   0.0008127
           43
    1   0.0002541
    2   0.0004196
    3  -0.0002062
 Max gradient component =       1.142E-02
 RMS gradient           =       2.421E-03
 Gradient time:  CPU 1711.44 s  wall 253.00 s
 Geometry Optimization Parameters
   NAtoms,    NIC,     NZ,  NCons,   NDum,   NFix, NCnnct, MaxDiis
       43     329       0       0       0       0       0       0

 Cartesian Hessian Update
 Hessian Updated using BFGS Update


** GEOMETRY OPTIMIZATION IN DELOCALIZED INTERNAL COORDINATES **
   Searching for a Minimum

   Optimization Cycle:   2

                       Coordinates (Angstroms)
     ATOM                X               Y               Z
      1  Fe        3.3526373077    2.6125492540   -0.4789960979
      2  H        -4.1150170607    2.1679915713    0.5353065628
      3  H        -1.9303257638    3.1888645922    1.4884816385
      4  H        -3.8359137938    1.4500013005    2.1069105282
      5  C        -3.7025216930    1.2600729879    1.0261696309
      6  C        -1.4371272463    2.2022462071    1.5349342025
      7  H        -5.5483415619    0.1890176689    0.6399246546
      8  H        -1.4545981565    1.9254660505    2.6059630458
      9  C        -4.4652330150    0.0200054053    0.5638273340
     10  C        -2.2334368921    1.2160536198    0.7357267512
     11  H        -0.4031223103    2.3335808410    1.2055067558
     12  H        -4.2898973526    0.5824848671   -1.5082878539
     13  C        -4.0672958710   -0.2952913599   -0.8723409675
     14  H        -4.2408278315   -0.8319489162    1.2312285215
     15  C        -1.7031256815    0.3065554217   -0.1825360146
     16  H        -4.6571259413   -1.1320169564   -1.2792226290
     17  O         0.5200038399    1.3781051390   -0.7538980850
     18  H        -2.2538265706    0.5325242093   -2.8527333699
     19  C        -2.5659661007   -0.6393889755   -1.0147675788
     20  C        -2.1927080477   -0.5145484406   -2.5141609039
     21  C        -0.2458457004    0.1294264547   -0.3915183076
     22  H         0.3998448877    0.3050464811    1.7453250579
     23  O         1.7048663945    0.8503186407    0.1489482989
     24  C         0.7566338697   -0.1185575982    0.7952688141
     25  H        -2.9120851983   -1.1038471308   -3.1046844148
     26  C        -2.3048493553   -2.0952381388   -0.5483299857
     27  H        -2.6382843254   -2.2557985061    0.4904059715
     28  H        -1.1876992316   -0.9012495095   -2.7521751099
     29  H        -0.0544989277   -0.5996443316   -1.1874254316
     30  H        -2.8546811153   -2.7948786057   -1.1980152617
     31  H        -0.4493499368   -2.2070317576    2.0100815115
     32  C         1.3010900076   -1.4825567132    0.9940961522
     33  H         0.8930800327   -1.7924223824    3.0809604930
     34  H        -1.2344898591   -2.3678680726   -0.6098533701
     35  C         0.6525319735   -2.2449360347    2.1011228699
     36  H         2.6595603850   -1.2968802650   -0.6364567011
     37  C         2.2968018870   -1.9607755327    0.1572571851
     38  H         0.9462992572   -3.2998047831    2.1373839719
     39  C         2.9062008530   -3.2507351046    0.2311010680
     40  H         2.5877091024   -3.9317779267    1.0248080924
     41  H         4.2184502293   -3.0180297059   -1.4710131056
     42  C         3.8673784863   -3.6631626769   -0.6584950929
     43  H         4.3122136592   -4.6578247007   -0.5968497776
   Point Group: c1    Number of degrees of freedom:   123


   Energy is  -2036.176086117

 Hessian Updated using BFGS Update

111 Hessian modes will be used to form the next step
  Hessian Eigenvalues:
     0.003204    0.003347    0.004158    0.005203    0.008390    0.008401
[...]
                    Cartesian Multipole Moments
 -----------------------------------------------------------------
    Charge (ESU x 10^10)
                 9.6064
    Dipole Moment (Debye)
         X      10.5938      Y       4.4652      Z       1.3895
       Tot      11.5800
    Quadrupole Moments (Debye-Ang)
        XX     -22.2770     XY       9.3812     YY     -53.1061
        XZ      -7.7278     YZ       1.5072     ZZ    -103.0670
    Octopole Moments (Debye-Ang^2)
       XXX     225.3246    XXY      82.8485    XYY     208.5451
       YYY      88.5750    XXZ     -36.8390    XYZ     -15.3265
       YYZ      -1.1347    XZZ      35.4839    YZZ      21.3537
       ZZZ      -5.3539
    Hexadecapole Moments (Debye-Ang^3)
      XXXX   -3540.3236   XXXY     370.1945   XXYY    -480.1663
      XYYY     216.5674   YYYY   -1775.2510   XXXZ    -224.6194
      XXYZ      58.7461   XYYZ     -94.3411   YYYZ     -65.1150
      XXZZ    -889.9165   XYZZ      90.7220   YYZZ    -519.2204
      XZZZ     -67.5510   YZZZ     -58.9773   ZZZZ    -959.8816
 -----------------------------------------------------------------
 Calculating analytic gradient of the SCF energy
 Gradient of SCF Energy
            1           2           3           4           5           6
    1   0.0143587   0.0003200   0.0001835   0.0007869   0.0033630   0.0011582
    2   0.0145489   0.0011155  -0.0003635   0.0009361  -0.0056650  -0.0051166
    3  -0.0062557  -0.0001504   0.0006987  -0.0006665  -0.0011896  -0.0062668
            7           8           9          10          11          12
    1   0.0011979  -0.0006735  -0.0005821  -0.0098292   0.0007338   0.0004806
    2  -0.0004200   0.0001891  -0.0010507   0.0197102   0.0004531  -0.0006944
    3  -0.0001441   0.0000864  -0.0013370   0.0184483  -0.0004297  -0.0000715
           13          14          15          16          17          18
    1  -0.0007470  -0.0004593   0.0124800   0.0000700   0.0059442  -0.0005495
    2   0.0003977   0.0007754  -0.0168564   0.0006206   0.0007740  -0.0008007
    3   0.0005857   0.0003728  -0.0148754   0.0002961   0.0057582   0.0000967
           19          20          21          22          23          24
    1  -0.0018722   0.0015782  -0.0101505   0.0000716  -0.0250509   0.0139428
    2   0.0031186   0.0015836   0.0008984  -0.0009917  -0.0127507  -0.0048732
    3   0.0013960  -0.0016285  -0.0067959  -0.0014880   0.0017971   0.0091074
           25          26          27          28          29          30
    1  -0.0001117   0.0005939  -0.0004026  -0.0005166  -0.0011161   0.0002332
    2   0.0000607  -0.0018933   0.0001212  -0.0003425   0.0011501   0.0006225
    3   0.0005507   0.0024111  -0.0004584  -0.0006999   0.0020448  -0.0003180
           31          32          33          34          35          36
    1  -0.0001721  -0.0209515  -0.0002598  -0.0001666   0.0033508  -0.0008115
    2   0.0007602   0.0088011   0.0004926  -0.0009736  -0.0014299   0.0003870
    3  -0.0000099   0.0167661  -0.0000797  -0.0004392  -0.0060752  -0.0004070
           37          38          39          40          41          42
    1   0.0220151  -0.0007522  -0.0194431   0.0010572   0.0003906   0.0105446
    2  -0.0152042   0.0009381   0.0141975  -0.0000391  -0.0002954  -0.0026468
    3  -0.0146501   0.0009862   0.0161564  -0.0009537  -0.0000016  -0.0122529
           43
    1  -0.0002336
    2  -0.0002419
    3   0.0000863
 Max gradient component =       2.505E-02
 RMS gradient           =       7.001E-03
 Gradient time:  CPU 1715.84 s  wall 253.58 s
 Geometry Optimization Parameters
   NAtoms,    NIC,     NZ,  NCons,   NDum,   NFix, NCnnct, MaxDiis
       43     329       0       0       0       0       0       0

 Cartesian Hessian Update
 Hessian Updated using BFGS Update
**WARNING** Hereditary positive definiteness endangered


** GEOMETRY OPTIMIZATION IN DELOCALIZED INTERNAL COORDINATES **
   Searching for a Minimum

   Optimization Cycle:   5

                       Coordinates (Angstroms)
     ATOM                X               Y               Z
      1  Fe        2.9587250150    2.4402993253   -0.2243726390
      2  H        -4.0673206652    2.1815634125    0.4685458961
      3  H        -1.8513404286    3.2061098193    1.4425946959
      4  H        -3.8292481752    1.5204667036    2.0587173618
      5  C        -3.6721686152    1.2780216714    0.9922574314
      6  C        -1.3852811319    2.2050827372    1.4838885477
      7  H        -5.5264020481    0.2372042272    0.6118507248
      8  H        -1.4074562006    1.9517292839    2.5620366141
      9  C        -4.4482751043    0.0447259883    0.5447392335
     10  C        -2.2121840741    1.2353393393    0.7221711084
     11  H        -0.3521655903    2.3079291506    1.1467344783
     12  H        -4.2702205763    0.5677390748   -1.5372672810
     13  C        -4.0511263196   -0.2954488956   -0.8823330388
     14  H        -4.2497096992   -0.7964830619    1.2318068828
     15  C        -1.6796216407    0.2986199546   -0.2070537502
     16  H        -4.6454060660   -1.1361429757   -1.2722073157
     17  O         0.5227808937    1.4248620611   -0.6753950677
     18  H        -2.2432783918    0.4788282517   -2.8850630106
     19  C        -2.5547011352   -0.6483700457   -1.0195750077
     20  C        -2.1922257955   -0.5606151424   -2.5264882705
     21  C        -0.2368220563    0.1432568640   -0.3808105324
     22  H         0.3581744669    0.2860125100    1.7918798202
     23  O         1.7010908416    0.8826408925    0.2389168907
     24  C         0.7574784537   -0.1342037046    0.8618773110
     25  H        -2.9348464257   -1.1459936831   -3.0927145144
     26  C        -2.3111585901   -2.1040269423   -0.5240894904
     27  H        -2.6481036992   -2.2382058796    0.5158553038
     28  H        -1.2033185857   -0.9807541029   -2.7719841253
     29  H         0.0093902732   -0.5684773239   -1.1726586929
     30  H        -2.8801474947   -2.7984464967   -1.1638657903
     31  H        -0.4164057260   -2.2258451429    2.0694697579
     32  C         1.2998980017   -1.4751980407    1.0341506300
     33  H         0.9474789363   -1.8607866980    3.1220034299
     34  H        -1.2488374484   -2.4035885358   -0.5936537026
     35  C         0.6878894599   -2.2728593312    2.1282225132
     36  H         2.5945673813   -1.2696614952   -0.6630480476
     37  C         2.2861631031   -1.9430558716    0.1449918902
     38  H         0.9682768091   -3.3298072029    2.1252684122
     39  C         2.9068267599   -3.2085884353    0.2175117207
     40  H         2.6589680270   -3.8968272087    1.0263149386
     41  H         4.1345875966   -2.9740540891   -1.5610221787
     42  C         3.8347781091   -3.6183212729   -0.7285728805
     43  H         4.2878051884   -4.6105731016   -0.6806512041
   Point Group: c1    Number of degrees of freedom:   123


   Energy is  -2036.189267381

 Hessian Updated using BFGS Update
**WARNING** Hereditary positive definiteness endangered

113 Hessian modes will be used to form the next step
  Hessian Eigenvalues:
    -0.019921    0.003219    0.003339    0.004220    0.005229    0.006387
     0.008399    0.008470    0.008977    0.010475    0.011585    0.011884
     0.014489    0.015921    0.016195    0.021827    0.022385    0.027113
     0.028716    0.028738    0.030383    0.031623    0.037366    0.039192
     0.043486    0.045674    0.048264    0.049600    0.051783    0.053357
     0.054125    0.054337    0.055183    0.056328    0.059590    0.059945
     0.068055    0.068654    0.069998    0.073690    0.076049    0.078174
     0.078473    0.079416    0.083978    0.085750    0.097396    0.098814
     0.110216    0.121037    0.122857    0.134094    0.134775    0.156461
     0.158518    0.159990    0.160013    0.160368    0.161114    0.163541
     0.176504    0.188634    0.193360    0.219991    0.220781    0.230261
     0.236833    0.244913    0.249954    0.250990    0.267530    0.271154
     0.279975    0.280494    0.282263    0.287482    0.293400    0.293733
     0.308358    0.310353    0.317023    0.321002    0.325268    0.327352
     0.328646    0.329465    0.329822    0.329864    0.330063    0.330195
     0.330483    0.330664    0.331824    0.332231    0.332293    0.332842
     0.333060    0.333500    0.333718    0.334230    0.336066    0.337084
     0.338639    0.341711    0.342377    0.342650    0.343488    0.345471
     0.384857    0.492545    0.537997    0.555618    1.335147
**WARNING** Hessian does not have the Desired Local Structure

 Minimum Search - Taking Simple RFO Step
 Searching for Lamda that Minimizes Along All modes
 Value Taken    Lamda =  -0.03317915
 Calculated Step too Large.  Step scaled by  0.197110
 Step Taken.  Stepsize is  0.300000

                             Maximum     Tolerance    Cnvgd?
         Gradient           0.018074      0.000300      NO
         Displacement       0.120434      0.001200      NO
         Energy change     -0.004869      0.000001      NO


 New Cartesian Coordinates Obtained by Inverse Iteration

 Displacement from previous Coordinates is:  0.378424
 ----------------------------------------------------------------
             Standard Nuclear Orientation (Angstroms)
    I     Atom           X                Y                Z
 ----------------------------------------------------------------
    1      Fe      2.8647334763     2.3484732289    -0.2028249330
    2      H      -4.0794151827     2.1913794939     0.4575283805
    3      H      -1.8525715602     3.2142084863     1.4418475903
    4      H      -3.8467517581     1.5334462879     2.0498333927
    5      C      -3.6841350276     1.2888353015     0.9849108431
    6      C      -1.3910730103     2.2100381629     1.4784362558
    7      H      -5.5386309249     0.2516801752     0.6047424711
    8      H      -1.4096654776     1.9567328817     2.5571270149
    9      C      -4.4605512608     0.0565525693     0.5404001312
   10      C      -2.2229682022     1.2456351121     0.7195462154
   11      H      -0.3585732991     2.3050057545     1.1391146152
   12      H      -4.2771078554     0.5719694073    -1.5415019601
   13      C      -4.0609088404    -0.2891869523    -0.8829237218
   14      H      -4.2654677494    -0.7826017149     1.2306346522
   15      C      -1.6881387796     0.3035004737    -0.2059211497
   16      H      -4.6561368686    -1.1303475083    -1.2711779754
   17      O       0.5127667489     1.4161318718    -0.6711763613
   18      H      -2.2508395489     0.4785792992    -2.8793009285
   19      C      -2.5663588225    -0.6438593255    -1.0134456247
   20      C      -2.2014106184    -0.5603810195    -2.5190707096
   21      C      -0.2452137453     0.1426415242    -0.3747298898
   22      H       0.3994804141     0.2957166211     1.7913129521
   23      O       1.7251726432     0.8804257381     0.2328860880
   24      C       0.7849986171    -0.1368496914     0.8614387467
   25      H      -2.9441958301    -1.1458835677    -3.0862215101
   26      C      -2.3240625931    -2.0979804737    -0.5137768106
   27      H      -2.6641182822    -2.2265340368     0.5253076820
   28      H      -1.2130650500    -0.9838080242    -2.7590808723
   29      H       0.0046932800    -0.5703924405    -1.1636134684
   30      H      -2.8924966439    -2.7940957357    -1.1534554688
   31      H      -0.4042825287    -2.2312848625     2.0384587333
   32      C       1.3310242111    -1.4748498575     1.0299651536
   33      H       0.9438056892    -1.8808664015     3.1159046861
   34      H      -1.2624702793    -2.3996893804    -0.5804353807
   35      C       0.7006361832    -2.2782829097     2.1116703804
   36      H       2.6393699180    -1.2563341333    -0.6419112052
   37      C       2.3191674385    -1.9394607947     0.1519491455
   38      H       0.9757797485    -3.3363870971     2.0998032578
   39      C       2.9319043311    -3.2156648100     0.2131718724
   40      H       2.6729011597    -3.9185797840     1.0047730551
   41      H       4.1770409603    -2.9670464599    -1.5415563707
   42      C       3.8647418587    -3.6201554908    -0.7212629014
   43      H       4.3095006940    -4.6163333309    -0.6783970202
 ----------------------------------------------------------------
 Molecular Point Group                 C1    NOp =  1
 Largest Abelian Subgroup              C1    NOp =  1
 Nuclear Repulsion Energy =  1796.8970299396 hartrees
 There are       82 alpha and       78 beta electrons
 Applying Cartesian multipole field
    Component          Value
    ---------          -----
     (2,0,0)        1.00000E-12
     (0,2,0)        2.00000E-11
     (0,0,2)       -3.00000E-11
 Nucleus-field energy     =     0.0000000237 hartrees
 Requested basis set is VDZ
 There are 147 shells and 231 basis functions
 A cutoff of  1.0D-12 yielded   9038 shell pairs
 There are     22540 function pairs (     22871 Cartesian)
 Smallest overlap matrix eigenvalue = 8.25E-04
 Guess MOs from SCF MO coefficient file

 -----------------------------------------------------------------------
  General SCF calculation program by
  Eric Jon Sundstrom, Paul Horn, Yuezhi Mao, Dmitri Zuev, Alec White,
  David Stuck, Shaama M.S., Shane Yost, Joonho Lee, David Small,
  Daniel Levine, Susi Lehtola, Hugh Burton, Evgeny Epifanovsky
 -----------------------------------------------------------------------
 Exchange:  B97M-V      Correlation:  B97M-V
 Using SG-2 standard quadrature grid
 Nonlocal Correlation:  rVV10 with C = 0.0100 and b = 6.00 and scale = 1.00000
 Grid used for NLC:  SG-1 standard quadrature
 using 12 threads for integral computing
 -------------------------------------------------------
 OpenMP Integral computing Module                
 Release: version 1.0, May 2013, Q-Chem Inc. Pittsburgh 
 -------------------------------------------------------
 -------------------------------------------------------
 OpenMP BLAS3 based DFT computing Module                
 Release: version 1.0, May 2013, Q-Chem Inc. Pittsburgh 
 -------------------------------------------------------
 -------------------------------------------------------
 OpenMP BLAS3 based DFT computing Module                
 Release: version 1.0, May 2013, Q-Chem Inc. Pittsburgh 
 -------------------------------------------------------
 -------------------------------------------------------
 OpenMP BLAS3 based DFT computing Module                
 Release: version 1.0, May 2013, Q-Chem Inc. Pittsburgh 
 -------------------------------------------------------
 Nonlocal correlation = 0.598282326479
 A unrestricted SCF calculation will be
 performed using DIIS, GDM
 SCF converges when RMS gradient is below 1.0e-08
 ---------------------------------------
  Cycle       Energy         DIIS error
 ---------------------------------------
 Nonlocal correlation = 5.979828318813e-01
    1   -2036.1899796738      2.59e-04  
    2   -2036.1387280258      1.22e-03  Done DIIS. Switching to GDM
 ---------------------------------------
  Cycle       Energy        RMS Gradient
 ---------------------------------------
 Nonlocal correlation = 5.986080144280e-01
    1   -2036.1387280258      3.56e-01   Descent step
 Nonlocal correlation = 5.981732904702e-01
    2   -2036.0246786764      4.31e-01  Line search: overstep
 Nonlocal correlation = 5.981319898820e-01
    3   -2036.1852615835      1.07e-01   Normal BFGS step
 Nonlocal correlation = 5.981548437447e-01
    4   -2036.1840927721      1.20e-01  Line search: overstep
 Nonlocal correlation = 5.981968670678e-01
    5   -2036.1906746773      4.44e-02   Normal BFGS step
 Nonlocal correlation = 5.981779297058e-01
    6   -2036.1902627436      3.63e-02  Line search: overstep
 Nonlocal correlation = 5.982736061863e-01
    7   -2036.1927124933      1.51e-02   Normal BFGS step
 Nonlocal correlation = 5.982835459893e-01
    8   -2036.1928787561      2.46e-02   Normal BFGS step
 Nonlocal correlation = 5.982608283629e-01
    9   -2036.1934923134      6.93e-03   Normal BFGS step
 Nonlocal correlation = 5.982471394764e-01
   10   -2036.1935880562      9.67e-03   Normal BFGS step
 Nonlocal correlation = 5.983087738894e-01
   11   -2036.1937544467      5.15e-03   Normal BFGS step
 Nonlocal correlation = 5.983101959475e-01
   12   -2036.1937736247      4.97e-03   Normal BFGS step
 Nonlocal correlation = 5.982650180329e-01
   13   -2036.1938401397      3.54e-03   Normal BFGS step
 Nonlocal correlation = 5.982895249237e-01
   14   -2036.1938297317      3.29e-03  Line search: overstep
 Nonlocal correlation = 5.982858158374e-01
   15   -2036.1938657847      1.11e-03   Normal BFGS step
 Nonlocal correlation = 5.982913876410e-01
   16   -2036.1938713535      1.07e-03   Normal BFGS step
 Nonlocal correlation = 5.982918104989e-01
   17   -2036.1938764839      7.26e-04   Normal BFGS step
 Nonlocal correlation = 5.982893350639e-01
   18   -2036.1938787953      5.89e-04   Normal BFGS step
 Nonlocal correlation = 5.982896387691e-01
   19   -2036.1938815884      5.60e-04   Normal BFGS step
 Nonlocal correlation = 5.982887513496e-01
   20   -2036.1938843201      4.77e-04   Normal BFGS step
 Nonlocal correlation = 5.982885646318e-01
   21   -2036.1938857445      4.37e-04   Normal BFGS step
 Nonlocal correlation = 5.982896061937e-01
   22   -2036.1938870308      4.10e-04   Normal BFGS step
 Nonlocal correlation = 5.982903434943e-01
   23   -2036.1938882436      3.79e-04   Normal BFGS step
 Nonlocal correlation = 5.982883773868e-01
   24   -2036.1938889441      3.32e-04   Normal BFGS step
 Nonlocal correlation = 5.982865863143e-01
   25   -2036.1938896453      1.07e-03   Normal BFGS step
 Nonlocal correlation = 5.982876979968e-01
   26   -2036.1938885254      3.12e-03  Line search: overstep
 Nonlocal correlation = 5.982893053524e-01
   27   -2036.1938903519      5.44e-04   Normal BFGS step
 Nonlocal correlation = 5.982915354351e-01
   28   -2036.1938918660      4.48e-04   Normal BFGS step
 Nonlocal correlation = 5.982894365421e-01
   29   -2036.1938934504      4.00e-04   Normal BFGS step
 Nonlocal correlation = 5.982905414090e-01
   30   -2036.1938933465      8.02e-04  Line search: overstep
 Nonlocal correlation = 5.982900497045e-01
   31   -2036.1938939311      2.64e-04   Normal BFGS step
 Nonlocal correlation = 5.982901900360e-01
   32   -2036.1938943173      2.30e-04   Normal BFGS step
 Nonlocal correlation = 5.982904856679e-01
   33   -2036.1938944968      2.28e-04   Normal BFGS step
 Nonlocal correlation = 5.982901448738e-01
   34   -2036.1938947300      1.72e-04   Normal BFGS step
 Nonlocal correlation = 5.982903397279e-01
   35   -2036.1938950060      2.09e-04   Normal BFGS step
 Nonlocal correlation = 5.982901172955e-01
   36   -2036.1938952709      4.08e-04   Normal BFGS step
 Nonlocal correlation = 5.982905713029e-01
   37   -2036.1938954676      2.49e-04   Normal BFGS step
 Nonlocal correlation = 5.982897899367e-01
   38   -2036.1938956055      1.65e-04   Normal BFGS step
 Nonlocal correlation = 5.982902250933e-01
   39   -2036.1938955843      2.52e-04  Line search: overstep
 Nonlocal correlation = 5.982901498366e-01
   40   -2036.1938956420      4.46e-05   Normal BFGS step
 Nonlocal correlation = 5.982901902122e-01
   41   -2036.1938956494      2.96e-05   Normal BFGS step
 Nonlocal correlation = 5.982901059586e-01
   42   -2036.1938956572      1.44e-05   Normal BFGS step
 Nonlocal correlation = 5.982901419033e-01
   43   -2036.1938956579      1.58e-05   Normal BFGS step
 Nonlocal correlation = 5.982901956077e-01
   44   -2036.1938956589      5.27e-06   Normal BFGS step
 Nonlocal correlation = 5.982901569501e-01
   45   -2036.1938956590      3.12e-06   Normal BFGS step
 Nonlocal correlation = 5.982901612451e-01
   46   -2036.1938956592      1.66e-06   Normal BFGS step
 Nonlocal correlation = 5.982901621041e-01
   47   -2036.1938956592      3.82e-06   Normal BFGS step
 Nonlocal correlation = 5.982901690064e-01
   48   -2036.1938956591      1.05e-05   Normal BFGS step
