
Running Job 1 of 1 car_2_2_opt_vdz_mgga.in
qchem car_2_2_opt_vdz_mgga.in_27614.0 /scr/c295_lal/156807/qchem27614/ 1
/usr/software/qchem_511/exe/qcprog.exe_s car_2_2_opt_vdz_mgga.in_27614.0 /scr/c295_lal/156807/qchem27614/
Check license passed

                  Welcome to Q-Chem
     A Quantum Leap Into The Future Of Chemistry


 Q-Chem 5.1, Q-Chem, Inc., Pleasanton, CA (2018)

 Yihan Shao,  Zhengting Gan,  E. Epifanovsky,  A. T. B. Gilbert,  M. Wormit,  
 J. Kussmann,  A. W. Lange,  A. Behn,  Jia Deng,  Xintian Feng,  D. Ghosh,  
 M. Goldey,  P. R. Horn,  L. D. Jacobson,  I. Kaliman,  T. Kus,  A. Landau,  
 Jie Liu,  E. I. Proynov,  R. M. Richard,  R. P. Steele,  E. J. Sundstrom,  
 H. L. Woodcock III,  P. M. Zimmerman,  D. Zuev,  B. Albrecht,  E. Alguire,  
 S. A. Baeppler,  D. Barton,  Z. Benda,  Y. A. Bernard,  E. J. Berquist,  
 K. B. Bravaya,  H. Burton,  D. Casanova,  Chun-Min Chang,  Yunqing Chen,  
 A. Chien,  K. D. Closser,  M. P. Coons,  S. Coriani,  S. Dasgupta,  
 A. L. Dempwolff,  M. Diedenhofen,  Hainam Do,  R. G. Edgar,  Po-Tung Fang,  
 S. Faraji,  S. Fatehi,  Qingguo Feng,  K. D. Fenk,  J. Fosso-Tande,  
 Qinghui Ge,  A. Ghysels,  G. Gidofalvi,  J. Gomes,  J. Gonthier,  A. Gunina,  
 D. Hait,  M. W. D. Hanson-Heine,  P. H. P. Harbach,  A. W. Hauser,  
 J. E. Herr,  E. G. Hohenstein,  Z. C. Holden,  Kerwin Hui,  B. C. Huynh,  
 T.-C. Jagau,  Hyunjun Ji,  B. Kaduk,  K. Khistyaev,  Jaehoon Kim,  
 P. Klunzinger,  K. Koh,  D. Kosenkov,  L. Koulias,  T. Kowalczyk,  
 C. M. Krauter,  A. Kunitsa,  Ka Un Lao,  A. Laurent,  K. V. Lawler,  
 Joonho Lee,  D. Lefrancois,  S. Lehtola,  D. S. Levine,  Yi-Pei Li,  
 You-Sheng Lin,  Fenglai Liu,  E. Livshits,  A. Luenser,  P. Manohar,  
 E. Mansoor,  S. F. Manzer,  Shan-Ping Mao,  Yuezhi Mao,  N. Mardirossian,  
 A. V. Marenich,  T. Markovich,  L. A. Martinez-Martinez,  S. A. Maurer,  
 N. J. Mayhall,  S. C. McKenzie,  J.-M. Mewes,  A. F. Morrison,  
 J. W. Mullinax,  K. Nanda,  T. S. Nguyen-Beck,  R. Olivares-Amaya,  
 J. A. Parkhill,  T. M. Perrine,  F. Plasser,  P. Pokhilko,  S. Prager,  
 A. Prociuk,  E. Ramos,  D. R. Rehn,  F. Rob,  M. Schneider,  N. Sergueev,  
 S. M. Sharada,  S. Sharma,  D. W. Small,  T. Stauch,  T. Stein,  
 Yu-Chuan Su,  A. J. W. Thom,  A. Tkatchenko,  T. Tsuchimochi,  N. M. Tubman,  
 L. Vogt,  M. L. Vidal,  O. Vydrov,  M. A. Watson,  J. Wenzel,  
 M. de Wergifosse,  T. A. Wesolowski,  A. White,  J. Witte,  A. Yamada,  
 Jun Yang,  K. Yao,  S. Yeganeh,  S. R. Yost,  Zhi-Qiang You,  A. Zech,  
 Igor Ying Zhang,  Xing Zhang,  Yan Zhao,  Ying Zhu,  B. R. Brooks,  
 G. K. L. Chan,  C. J. Cramer,  M. S. Gordon,  W. J. Hehre,  A. Klamt,  
 M. W. Schmidt,  C. D. Sherrill,  D. G. Truhlar,  A. Aspuru-Guzik,  R. Baer,  
 A. T. Bell,  N. A. Besley,  Jeng-Da Chai,  A. E. DePrince, III,  
 R. A. DiStasio Jr.,  A. Dreuw,  B. D. Dunietz,  T. R. Furlani,  
 Chao-Ping Hsu,  Yousung Jung,  Jing Kong,  D. S. Lambrecht,  WanZhen Liang,  
 C. Ochsenfeld,  V. A. Rassolov,  L. V. Slipchenko,  J. E. Subotnik,  
 T. Van Voorhis,  J. M. Herbert,  A. I. Krylov,  P. M. W. Gill,  M. Head-Gordon

 Contributors to earlier versions of Q-Chem not listed above: 
 R. D. Adamson,  B. Austin,  J. Baker,  G. J. O. Beran,  K. Brandhorst,  
 S. T. Brown,  E. F. C. Byrd,  A. K. Chakraborty,  C.-L. Cheng,  
 Siu Hung Chien,  D. M. Chipman,  D. L. Crittenden,  H. Dachsel,  
 R. J. Doerksen,  A. D. Dutoi,  L. Fusti-Molnar,  W. A. Goddard III,  
 A. Golubeva-Zadorozhnaya,  S. R. Gwaltney,  G. Hawkins,  A. Heyden,  
 S. Hirata,  G. Kedziora,  F. J. Keil,  C. Kelley,  Jihan Kim,  R. A. King,  
 R. Z. Khaliullin,  P. P. Korambath,  W. Kurlancheek,  A. M. Lee,  M. S. Lee,  
 S. V. Levchenko,  Ching Yeh Lin,  D. Liotard,  R. C. Lochan,  I. Lotan,  
 P. E. Maslen,  N. Nair,  D. P. O'Neill,  D. Neuhauser,  E. Neuscamman,  
 C. M. Oana,  R. Olson,  B. Peters,  R. Peverati,  P. A. Pieniazek,  
 Y. M. Rhee,  J. Ritchie,  M. A. Rohrdanz,  E. Rosta,  N. J. Russ,  
 H. F. Schaefer III,  N. E. Schultz,  N. Shenvi,  A. C. Simmonett,  A. Sodt,  
 D. Stuck,  K. S. Thanthiriwatte,  V. Vanovschi,  Tao Wang,  A. Warshel,  
 C. F. Williams,  Q. Wu,  X. Xu,  W. Zhang

 Please cite Q-Chem as follows:
 Y. Shao et al., Mol. Phys. 113, 184-215 (2015)
 DOI: 10.1080/00268976.2014.952696

 Q-Chem 5.1.1 for Intel X86 EM64T Linux

 Parts of Q-Chem use Armadillo 8.300.2 (Tropical Shenanigans).
 http://arma.sourceforge.net/

 Q-Chem begins on Tue Nov 27 07:39:45 2018  

Host: cub-0-12.local
0

     Scratch files written to /scr/c295_lal/156807/qchem27614//
 Aug318 |scratch|qcdevops|jenkins|workspace|build_RNUM -1
Processing $rem in /usr/software/qchem_511/config/preferences.
 MEM_TOTAL  2000 
Input Ideriv = 2
Curr. Ideriv = -1
Max.  Ideriv = 2
Input Ideriv = 1
Curr. Ideriv = 2
Max.  Ideriv = 1

Checking the input file for inconsistencies... 	...done.

--------------------------------------------------------------
User input:
--------------------------------------------------------------
$molecule
0 1
C
C  1 1.376407
C  1 1.480903 2 123.773346
H  3 1.096617 1 115.139855 2 -140.366137 0
C  3 1.373304 1 126.986263 2 45.379416 0
H  5 1.095852 3 118.335826 1 -0.560282 0
C  5 1.460739 3 126.420608 1 176.133970 0
C  7 1.388281 5 118.356986 3 -175.261759 0
H  8 1.098697 7 116.459002 5 -1.403032 0
C  8 1.440351 7 128.468379 5 177.429204 0
H  10 1.094007 8 118.285177 7 0.650768 0
C  10 1.381170 8 122.972372 7 -178.492499 0
H  12 1.098354 10 117.477263 8 -0.836193 0
C  12 1.454677 10 126.886487 8 178.740632 0
C  14 1.386368 12 118.535798 10 -179.806061 0
H  15 1.098332 14 116.770857 12 -0.188033 0
C  15 1.450800 14 128.184663 12 179.796833 0
H  17 1.095754 15 117.979543 14 -0.261096 0
C  17 1.363503 15 123.974719 14 179.714200 0
H  19 1.092185 17 121.834104 15 -179.989068 0
H  19 1.094710 17 121.685516 15 0.012618 0
C  7 1.523892 5 118.645877 3 3.628431 0
H  22 1.098622 7 112.545248 5 177.305046 0
H  22 1.105025 7 110.878896 5 56.611882 0
H  22 1.106039 7 111.072681 5 -62.002536 0
C  2 1.525479 1 123.919761 3 2.003883 0
H  26 1.099211 2 112.634572 1 17.779526 0
H  26 1.106167 2 110.172806 1 138.895074 0
H  26 1.108624 2 111.705047 1 -103.306632 0
C  14 1.525660 12 118.416415 10 -0.126268 0
H  30 1.098378 14 112.587630 12 179.441375 0
H  30 1.105284 14 110.970413 12 58.804227 0
H  30 1.105349 14 110.894170 12 -59.921375 0
C  2 1.532227 1 122.913633 3 -177.743744 0
H  34 1.107516 2 109.034054 1 -140.001751 0
H  34 1.112410 2 108.311255 1 106.155409 0
C  34 1.547342 2 114.500755 1 -16.184206 0
H  37 1.105350 34 110.076200 2 164.808053 0
H  37 1.105883 34 109.759580 2 -78.344488 0
C  37 1.543335 34 109.810547 2 42.873005 0
H  40 1.106110 37 110.935142 34 177.250796 0
H  40 1.108128 37 108.648807 34 60.265737 0
C  40 1.563088 37 112.915105 34 -60.182575 0
C  43 1.565671 40 107.319471 37 168.234091 0
H  44 1.101841 43 111.984862 40 174.999223 0
H  44 1.103477 43 110.935084 40 -64.358378 0
H  44 1.105156 43 109.775969 40 55.194259 0
C  43 1.567812 40 109.989443 37 -73.945657 0
H  48 1.102051 43 111.413025 40 58.641511 0
H  48 1.103676 43 111.387959 40 178.903426 0
H  48 1.105073 43 110.161699 40 -61.820136 0
$end

$rem
BASIS = VDZ
METHOD  = B97M-rV
JOBTYPE = OPT
$end
--------------------------------------------------------------
 ----------------------------------------------------------------
