
Running Job 1 of 1 car_2_2_opt_vdz_mgga.in
qchem car_2_2_opt_vdz_mgga.in_27614.0 /scr/c295_lal/156807/qchem27614/ 1
/usr/software/qchem_511/exe/qcprog.exe_s car_2_2_opt_vdz_mgga.in_27614.0 /scr/c295_lal/156807/qchem27614/
Check license passed

                  Welcome to Q-Chem
     A Quantum Leap Into The Future Of Chemistry


 Q-Chem 5.1, Q-Chem, Inc., Pleasanton, CA (2018)

 Yihan Shao,  Zhengting Gan,  E. Epifanovsky,  A. T. B. Gilbert,  M. Wormit,  
 J. Kussmann,  A. W. Lange,  A. Behn,  Jia Deng,  Xintian Feng,  D. Ghosh,  
 M. Goldey,  P. R. Horn,  L. D. Jacobson,  I. Kaliman,  T. Kus,  A. Landau,  
 Jie Liu,  E. I. Proynov,  R. M. Richard,  R. P. Steele,  E. J. Sundstrom,  
 H. L. Woodcock III,  P. M. Zimmerman,  D. Zuev,  B. Albrecht,  E. Alguire,  
 S. A. Baeppler,  D. Barton,  Z. Benda,  Y. A. Bernard,  E. J. Berquist,  
 K. B. Bravaya,  H. Burton,  D. Casanova,  Chun-Min Chang,  Yunqing Chen,  
 A. Chien,  K. D. Closser,  M. P. Coons,  S. Coriani,  S. Dasgupta,  
 A. L. Dempwolff,  M. Diedenhofen,  Hainam Do,  R. G. Edgar,  Po-Tung Fang,  
 S. Faraji,  S. Fatehi,  Qingguo Feng,  K. D. Fenk,  J. Fosso-Tande,  
 Qinghui Ge,  A. Ghysels,  G. Gidofalvi,  J. Gomes,  J. Gonthier,  A. Gunina,  
 D. Hait,  M. W. D. Hanson-Heine,  P. H. P. Harbach,  A. W. Hauser,  
 J. E. Herr,  E. G. Hohenstein,  Z. C. Holden,  Kerwin Hui,  B. C. Huynh,  
 T.-C. Jagau,  Hyunjun Ji,  B. Kaduk,  K. Khistyaev,  Jaehoon Kim,  
 P. Klunzinger,  K. Koh,  D. Kosenkov,  L. Koulias,  T. Kowalczyk,  
 C. M. Krauter,  A. Kunitsa,  Ka Un Lao,  A. Laurent,  K. V. Lawler,  
 Joonho Lee,  D. Lefrancois,  S. Lehtola,  D. S. Levine,  Yi-Pei Li,  
 You-Sheng Lin,  Fenglai Liu,  E. Livshits,  A. Luenser,  P. Manohar,  
 E. Mansoor,  S. F. Manzer,  Shan-Ping Mao,  Yuezhi Mao,  N. Mardirossian,  
 A. V. Marenich,  T. Markovich,  L. A. Martinez-Martinez,  S. A. Maurer,  
 N. J. Mayhall,  S. C. McKenzie,  J.-M. Mewes,  A. F. Morrison,  
 J. W. Mullinax,  K. Nanda,  T. S. Nguyen-Beck,  R. Olivares-Amaya,  
 J. A. Parkhill,  T. M. Perrine,  F. Plasser,  P. Pokhilko,  S. Prager,  
 A. Prociuk,  E. Ramos,  D. R. Rehn,  F. Rob,  M. Schneider,  N. Sergueev,  
 S. M. Sharada,  S. Sharma,  D. W. Small,  T. Stauch,  T. Stein,  
 Yu-Chuan Su,  A. J. W. Thom,  A. Tkatchenko,  T. Tsuchimochi,  N. M. Tubman,  
 L. Vogt,  M. L. Vidal,  O. Vydrov,  M. A. Watson,  J. Wenzel,  
 M. de Wergifosse,  T. A. Wesolowski,  A. White,  J. Witte,  A. Yamada,  
 Jun Yang,  K. Yao,  S. Yeganeh,  S. R. Yost,  Zhi-Qiang You,  A. Zech,  
 Igor Ying Zhang,  Xing Zhang,  Yan Zhao,  Ying Zhu,  B. R. Brooks,  
 G. K. L. Chan,  C. J. Cramer,  M. S. Gordon,  W. J. Hehre,  A. Klamt,  
 M. W. Schmidt,  C. D. Sherrill,  D. G. Truhlar,  A. Aspuru-Guzik,  R. Baer,  
 A. T. Bell,  N. A. Besley,  Jeng-Da Chai,  A. E. DePrince, III,  
 R. A. DiStasio Jr.,  A. Dreuw,  B. D. Dunietz,  T. R. Furlani,  
 Chao-Ping Hsu,  Yousung Jung,  Jing Kong,  D. S. Lambrecht,  WanZhen Liang,  
 C. Ochsenfeld,  V. A. Rassolov,  L. V. Slipchenko,  J. E. Subotnik,  
 T. Van Voorhis,  J. M. Herbert,  A. I. Krylov,  P. M. W. Gill,  M. Head-Gordon

 Contributors to earlier versions of Q-Chem not listed above: 
 R. D. Adamson,  B. Austin,  J. Baker,  G. J. O. Beran,  K. Brandhorst,  
 S. T. Brown,  E. F. C. Byrd,  A. K. Chakraborty,  C.-L. Cheng,  
 Siu Hung Chien,  D. M. Chipman,  D. L. Crittenden,  H. Dachsel,  
 R. J. Doerksen,  A. D. Dutoi,  L. Fusti-Molnar,  W. A. Goddard III,  
 A. Golubeva-Zadorozhnaya,  S. R. Gwaltney,  G. Hawkins,  A. Heyden,  
 S. Hirata,  G. Kedziora,  F. J. Keil,  C. Kelley,  Jihan Kim,  R. A. King,  
 R. Z. Khaliullin,  P. P. Korambath,  W. Kurlancheek,  A. M. Lee,  M. S. Lee,  
 S. V. Levchenko,  Ching Yeh Lin,  D. Liotard,  R. C. Lochan,  I. Lotan,  
 P. E. Maslen,  N. Nair,  D. P. O'Neill,  D. Neuhauser,  E. Neuscamman,  
 C. M. Oana,  R. Olson,  B. Peters,  R. Peverati,  P. A. Pieniazek,  
 Y. M. Rhee,  J. Ritchie,  M. A. Rohrdanz,  E. Rosta,  N. J. Russ,  
 H. F. Schaefer III,  N. E. Schultz,  N. Shenvi,  A. C. Simmonett,  A. Sodt,  
 D. Stuck,  K. S. Thanthiriwatte,  V. Vanovschi,  Tao Wang,  A. Warshel,  
 C. F. Williams,  Q. Wu,  X. Xu,  W. Zhang

 Please cite Q-Chem as follows:
 Y. Shao et al., Mol. Phys. 113, 184-215 (2015)
 DOI: 10.1080/00268976.2014.952696

 Q-Chem 5.1.1 for Intel X86 EM64T Linux

 Parts of Q-Chem use Armadillo 8.300.2 (Tropical Shenanigans).
 http://arma.sourceforge.net/

 Q-Chem begins on Tue Nov 27 07:39:45 2018  

Host: cub-0-12.local
0

     Scratch files written to /scr/c295_lal/156807/qchem27614//
 Aug318 |scratch|qcdevops|jenkins|workspace|build_RNUM -1
Processing $rem in /usr/software/qchem_511/config/preferences.
 MEM_TOTAL  2000 
Input Ideriv = 2
Curr. Ideriv = -1
Max.  Ideriv = 2
Input Ideriv = 1
Curr. Ideriv = 2
Max.  Ideriv = 1

Checking the input file for inconsistencies... 	...done.

--------------------------------------------------------------
User input:
--------------------------------------------------------------
$molecule
0 1
C
C  1 1.376407
C  1 1.480903 2 123.773346
H  3 1.096617 1 115.139855 2 -140.366137 0
C  3 1.373304 1 126.986263 2 45.379416 0
H  5 1.095852 3 118.335826 1 -0.560282 0
C  5 1.460739 3 126.420608 1 176.133970 0
C  7 1.388281 5 118.356986 3 -175.261759 0
H  8 1.098697 7 116.459002 5 -1.403032 0
C  8 1.440351 7 128.468379 5 177.429204 0
H  10 1.094007 8 118.285177 7 0.650768 0
C  10 1.381170 8 122.972372 7 -178.492499 0
H  12 1.098354 10 117.477263 8 -0.836193 0
C  12 1.454677 10 126.886487 8 178.740632 0
C  14 1.386368 12 118.535798 10 -179.806061 0
H  15 1.098332 14 116.770857 12 -0.188033 0
C  15 1.450800 14 128.184663 12 179.796833 0
H  17 1.095754 15 117.979543 14 -0.261096 0
C  17 1.363503 15 123.974719 14 179.714200 0
H  19 1.092185 17 121.834104 15 -179.989068 0
H  19 1.094710 17 121.685516 15 0.012618 0
C  7 1.523892 5 118.645877 3 3.628431 0
H  22 1.098622 7 112.545248 5 177.305046 0
H  22 1.105025 7 110.878896 5 56.611882 0
H  22 1.106039 7 111.072681 5 -62.002536 0
C  2 1.525479 1 123.919761 3 2.003883 0
H  26 1.099211 2 112.634572 1 17.779526 0
H  26 1.106167 2 110.172806 1 138.895074 0
H  26 1.108624 2 111.705047 1 -103.306632 0
C  14 1.525660 12 118.416415 10 -0.126268 0
H  30 1.098378 14 112.587630 12 179.441375 0
H  30 1.105284 14 110.970413 12 58.804227 0
H  30 1.105349 14 110.894170 12 -59.921375 0
C  2 1.532227 1 122.913633 3 -177.743744 0
H  34 1.107516 2 109.034054 1 -140.001751 0
H  34 1.112410 2 108.311255 1 106.155409 0
C  34 1.547342 2 114.500755 1 -16.184206 0
H  37 1.105350 34 110.076200 2 164.808053 0
H  37 1.105883 34 109.759580 2 -78.344488 0
C  37 1.543335 34 109.810547 2 42.873005 0
H  40 1.106110 37 110.935142 34 177.250796 0
H  40 1.108128 37 108.648807 34 60.265737 0
C  40 1.563088 37 112.915105 34 -60.182575 0
C  43 1.565671 40 107.319471 37 168.234091 0
H  44 1.101841 43 111.984862 40 174.999223 0
H  44 1.103477 43 110.935084 40 -64.358378 0
H  44 1.105156 43 109.775969 40 55.194259 0
C  43 1.567812 40 109.989443 37 -73.945657 0
H  48 1.102051 43 111.413025 40 58.641511 0
H  48 1.103676 43 111.387959 40 178.903426 0
H  48 1.105073 43 110.161699 40 -61.820136 0
$end

$rem
BASIS = VDZ
METHOD  = B97M-rV
JOBTYPE = OPT
$end
--------------------------------------------------------------
 ----------------------------------------------------------------
             Standard Nuclear Orientation (Angstroms)
    I     Atom           X                Y                Z
 ----------------------------------------------------------------
    1      C       3.3500269087     0.1371508614     0.1400295983
    2      C       3.6533231159     1.4302912004     0.5009945606
    3      C       2.0606043286    -0.5227283392     0.4482868710
    4      H       2.1354896067    -1.5754996299     0.7460009101
    5      C       0.8033486637     0.0079442418     0.2944730839
    6      H       0.7138165294     1.0310870329    -0.0876976003
    7      C      -0.4633417243    -0.6810466647     0.5280226887
    8      C      -1.6424688218    -0.0142169741     0.2241780135
    9      H      -1.5407795013     1.0117978655    -0.1554111443
   10      C      -2.9956721924    -0.4984536326     0.3188696175
   11      H      -3.1573755552    -1.5173852672     0.6828499226
   12      C      -4.0921327095     0.2586637611    -0.0446935205
   13      H      -3.9059764245     1.2784900865    -0.4075731328
   14      C      -5.4872826638    -0.1516256479    -0.0085773161
   15      C      -6.4544049194     0.7527044681    -0.4195247768
   16      H      -6.1012078180     1.7391530227    -0.7489245930
   17      C      -7.8921110994     0.5657607121    -0.4731308613
   18      H      -8.2965889423    -0.4030956932    -0.1594562385
   19      C      -8.7698835472     1.5224473682    -0.8895520456
   20      H      -9.8470435593     1.3438125354    -0.9157050409
   21      H      -8.4309794364     2.5110079622    -1.2155611557
   22      C      -0.4313443354    -2.1054345210     1.0687095014
   23      H      -1.4365786135    -2.5094812249     1.2509747093
   24      H       0.1272633205    -2.1527510669     2.0209693829
   25      H       0.0798818258    -2.7870977357     0.3635107044
   26      C       2.7188209979     2.3321684658     1.3012503754
   27      H       1.9312627587     1.7694402296     1.8221666592
   28      H       3.2930857326     2.9051821089     2.0532349570
   29      H       2.2202172713     3.0824121297     0.6550492132
   30      C      -5.8173193067    -1.5610665456     0.4732842883
   31      H      -6.8964494595    -1.7657803217     0.4711362288
   32      H      -5.4489157531    -1.7236078990     1.5026102089
   33      H      -5.3315909519    -2.3202891112    -0.1665949761
   34      C       4.9746455142     2.1106269999     0.1282078932
   35      H       5.3255455290     2.7138268386     0.9882141864
   36      H       4.7722470718     2.8482613831    -0.6794965052
   37      C       6.0891376419     1.1400742195    -0.3302698735
   38      H       6.8980816602     1.7013687064    -0.8326210423
   39      H       6.5464953638     0.6529385648     0.5509224879
   40      C       5.4982130447     0.0757210572    -1.2788706266
   41      H       6.2887496921    -0.5991594224    -1.6571132465
   42      H       5.0676221005     0.5881068365    -2.1620466659
   43      C       4.3778141630    -0.7829872278    -0.6076251255
   44      C       3.6690943162    -1.5946383605    -1.7435231394
   45      H       2.9197883027    -2.2963006217    -1.3431930772
   46      H       3.1579497725    -0.9191671329    -2.4507228040
   47      H       4.4173791975    -2.1818717210    -2.3061922259
   48      C       5.0138865822    -1.7969723575     0.4049362314
   49      H       5.5913014708    -1.2766777968     1.1862185256
   50      H       4.2402341047    -2.4028694665     0.9073815023
   51      H       5.6893509628    -2.4921497006    -0.1257827784
 ----------------------------------------------------------------
 Molecular Point Group                 C1    NOp =  1
 Largest Abelian Subgroup              C1    NOp =  1
 Nuclear Repulsion Energy =  1505.0372387240 hartrees
 There are       78 alpha and       78 beta electrons
 Requested basis set is VDZ
 There are 165 shells and 249 basis functions

 Total QAlloc Memory Limit   2000 MB
 Mega-Array Size       188 MB
 MEM_STATIC part       192 MB
 A cutoff of  1.0D-11 yielded   8443 shell pairs
 There are     19629 function pairs
 
 -------------------------------------------------------
 OpenMP Integral Computing Module                       
 Release: version 1.0, May 2013, Q-Chem Inc. Pittsburgh 
 -------------------------------------------------------
 Integral Job Info:
 Integral job number is                      11
 Integral operator is                         1
 short-range coefficients                     0
 long-range coefficients              100000000
 Omega coefficients                           0
 if combine SR and LR in K                    0
 Integral screening is                        0
 Integral computing path is                   2
 max size of driver memory is            800000
 size of driver memory is                 45569
 size of scratch memory is              1477076
 max col of scratch BK array                289
 max len of scratch array in speh3           22
 max len of scratch index in speh4            8
 max int batch size is                      520
 min int batch size is                       52
 fixed nKL is                                52
 max L of basis functions is                  1
 order of int derivative is                   0
 number of shells is                        165
 number of basis is                         249
 number of cartesian basis is               249
 number of contracted shell pairs          8443
 number of primitive shell pairs          23220
 maxK2 (contraction) of shell pair           25
 max number of K2 of shell pair               1
 max number of CS2 of shell pair           2168
 max number of PS2 of shell pair           5155
 mem total for path MDJ                  585932
 -------------------------------------------------------
 Smallest overlap matrix eigenvalue = 9.30E-04

 Scale SEOQF with 1.000000e-02/1.000000e-01/1.000000e-01

 Standard Electronic Orientation quadrupole field applied
 Nucleus-field energy     =     0.0000000223 hartrees
 Guess from superposition of atomic densities
 Warning:  Energy on first SCF cycle will be non-variational
 SAD guess density has 156.000000 electrons

 -----------------------------------------------------------------------
  General SCF calculation program by
  Eric Jon Sundstrom, Paul Horn, Yuezhi Mao, Dmitri Zuev, Alec White,
  David Stuck, Shaama M.S., Shane Yost, Joonho Lee, David Small,
  Daniel Levine, Susi Lehtola, Hugh Burton, Evgeny Epifanovsky
 -----------------------------------------------------------------------
 Exchange:  B97M-V      Correlation:  B97M-V
 Using SG-2 standard quadrature grid
 Nonlocal Correlation:  rVV10 with C = 0.0100 and b = 6.00 and scale = 1.00000
 Grid used for NLC:  SG-1 standard quadrature
 using 12 threads for integral computing
 -------------------------------------------------------
 OpenMP Integral computing Module                
 Release: version 1.0, May 2013, Q-Chem Inc. Pittsburgh 
 -------------------------------------------------------
 -------------------------------------------------------
 OpenMP BLAS3 based DFT computing Module                
 Release: version 1.0, May 2013, Q-Chem Inc. Pittsburgh 
 -------------------------------------------------------
 -------------------------------------------------------
 OpenMP BLAS3 based DFT computing Module                
 Release: version 1.0, May 2013, Q-Chem Inc. Pittsburgh 
 -------------------------------------------------------
 -------------------------------------------------------
 OpenMP BLAS3 based DFT computing Module                
 Release: version 1.0, May 2013, Q-Chem Inc. Pittsburgh 
 -------------------------------------------------------
 Nonlocal correlation = 0.550219830201
 A restricted SCF calculation will be
 performed using DIIS
 SCF converges when DIIS error is below 1.0e-08
 ---------------------------------------
  Cycle       Energy         DIIS error
 ---------------------------------------
 Nonlocal correlation = 5.825182780271e-01
    1    -820.5722474246      5.93e-02  
 Nonlocal correlation = 5.685108269832e-01
    2    -816.9724606120      6.58e-03  
 Nonlocal correlation = 5.741095823401e-01
    3    -816.8406861998      7.64e-03  
 Nonlocal correlation = 5.743736480958e-01
    4    -817.3785680332      8.71e-04  
 Nonlocal correlation = 5.743793343892e-01
    5    -817.3828902431      5.57e-04  
 Nonlocal correlation = 5.743721152123e-01
    6    -817.3855006681      2.24e-04  
 Nonlocal correlation = 5.743653378715e-01
    7    -817.3859601633      5.38e-05  
 Nonlocal correlation = 5.743637432334e-01
    8    -817.3859785889      3.30e-05  
 Nonlocal correlation = 5.743635968828e-01
    9    -817.3859899783      8.93e-06  
 Nonlocal correlation = 5.743640584711e-01
   10    -817.3859906987      3.40e-06  
 Nonlocal correlation = 5.743641492950e-01
   11    -817.3859908182      1.23e-06  
 Nonlocal correlation = 5.743641998351e-01
   12    -817.3859908329      4.30e-07  
 Nonlocal correlation = 5.743642087182e-01
   13    -817.3859908345      9.72e-08  
 Nonlocal correlation = 5.743642109371e-01
   14    -817.3859908346      3.74e-08  
 Nonlocal correlation = 5.743642109290e-01
   15    -817.3859908346      1.00e-08  
   16    -817.3859908346      3.50e-09  Convergence criterion met
 ---------------------------------------
 SCF time:   CPU 21542.41s  wall 1800.00s 
 SCF   energy in the final basis set =     -817.3859908346
 Total energy in the final basis set =     -817.3859908346
 
 --------------------------------------------------------------
 
                    Orbital Energies (a.u.)
 --------------------------------------------------------------
 
 Alpha MOs
 -- Occupied --
-10.214 -10.211 -10.209 -10.201 -10.198 -10.196 -10.195 -10.193
-10.193 -10.192 -10.192 -10.191 -10.188 -10.185 -10.185 -10.185
-10.184 -10.182 -10.176 -10.175 -10.172  -0.822  -0.810  -0.796
 -0.762  -0.757  -0.745  -0.722  -0.697  -0.666  -0.662  -0.653
 -0.651  -0.645  -0.607  -0.576  -0.552  -0.537  -0.517  -0.507
 -0.497  -0.476  -0.458  -0.449  -0.442  -0.428  -0.422  -0.415
 -0.407  -0.397  -0.395  -0.394  -0.391  -0.382  -0.380  -0.375
 -0.371  -0.367  -0.360  -0.356  -0.349  -0.344  -0.342  -0.334
 -0.327  -0.323  -0.320  -0.317  -0.313  -0.311  -0.297  -0.293
 -0.288  -0.275  -0.267  -0.233  -0.206  -0.168
 -- Virtual --
 -0.093  -0.040  -0.000   0.029   0.034   0.039   0.049   0.055
  0.055   0.066   0.069   0.072   0.075   0.077   0.083   0.090
  0.092   0.098   0.108   0.112   0.117   0.123   0.128   0.133
  0.134   0.137   0.142   0.148   0.151   0.155   0.169   0.173
  0.176   0.178   0.186   0.190   0.193   0.201   0.208   0.210
  0.216   0.218   0.232   0.241   0.246   0.252   0.271   0.300
  0.307   0.321   0.332   0.350   0.359   0.367   0.372   0.375
  0.386   0.399   0.414   0.420   0.430   0.435   0.447   0.450
  0.451   0.457   0.462   0.466   0.471   0.476   0.484   0.494
  0.494   0.509   0.511   0.513   0.518   0.521   0.528   0.541
  0.555   0.560   0.575   0.586   0.594   0.602   0.606   0.612
  0.618   0.626   0.631   0.633   0.635   0.642   0.648   0.653
  0.658   0.661   0.661   0.664   0.667   0.674   0.679   0.682
  0.686   0.688   0.691   0.696   0.700   0.702   0.703   0.707
  0.711   0.715   0.716   0.719   0.723   0.725   0.728   0.731
  0.733   0.736   0.739   0.742   0.753   0.758   0.763   0.769
  0.774   0.778   0.781   0.790   0.798   0.802   0.817   0.826
  0.829   0.848   0.859   0.877   0.878   0.892   0.896   0.906
  0.917   0.946   0.958   0.997   1.000   1.035   1.049   1.074
  1.094   1.105   1.136   1.140   1.157   1.167   1.181   1.194
  1.219   1.244   1.269   1.271   1.301   1.318   1.330   1.349
  1.360   1.419   1.496
 --------------------------------------------------------------
 
          Ground-State Mulliken Net Atomic Charges

     Atom                 Charge (a.u.)
  ----------------------------------------
      1 C                     0.052016
      2 C                    -0.131051
      3 C                    -0.102699
      4 H                     0.088413
      5 C                    -0.110708
      6 H                     0.075485
      7 C                    -0.050321
      8 C                    -0.128318
      9 H                     0.069544
     10 C                    -0.057317
     11 H                     0.084520
     12 C                    -0.124123
     13 H                     0.071031
     14 C                    -0.042380
     15 C                    -0.134188
     16 H                     0.070595
     17 C                    -0.070119
     18 H                     0.084971
     19 C                    -0.217348
     20 H                     0.107110
     21 H                     0.104772
     22 C                    -0.251708
     23 H                     0.119557
     24 H                     0.125849
     25 H                     0.126747
     26 C                    -0.265356
     27 H                     0.135713
     28 H                     0.105955
     29 H                     0.121420
     30 C                    -0.255882
     31 H                     0.121092
     32 H                     0.127745
     33 H                     0.127300
     34 C                    -0.169733
     35 H                     0.098710
     36 H                     0.108579
     37 C                    -0.155538
     38 H                     0.095847
     39 H                     0.101851
     40 C                    -0.124258
     41 H                     0.090779
     42 H                     0.093662
     43 C                    -0.350646
     44 C                    -0.190217
     45 H                     0.103746
     46 H                     0.107458
     47 H                     0.102067
     48 C                    -0.216270
     49 H                     0.112216
     50 H                     0.109572
     51 H                     0.103857
  ----------------------------------------
  Sum of atomic charges =    -0.000000

 -----------------------------------------------------------------
                    Cartesian Multipole Moments
 -----------------------------------------------------------------
    Charge (ESU x 10^10)
                -0.0000
    Dipole Moment (Debye)
         X       0.7747      Y      -0.4739      Z       0.2046
       Tot       0.9309
    Quadrupole Moments (Debye-Ang)
        XX    -127.8165     XY       4.6309     YY    -126.4997
        XZ      -1.2897     YZ      -3.3127     ZZ    -137.8922
    Octopole Moments (Debye-Ang^2)
       XXX      -4.0544    XXY     -14.9321    XYY      -4.6675
       YYY       2.0790    XXZ      -3.4292    XYZ      16.3088
       YYZ      -0.6684    XZZ      20.1887    YZZ      -0.8816
       ZZZ       3.6562
    Hexadecapole Moments (Debye-Ang^3)
      XXXX  -17434.9508   XXXY     181.0806   XXYY   -3171.6670
      XYYY       7.8804   YYYY   -1613.4845   XXXZ      -4.9367
      XXYZ     -84.5519   XYYZ      21.9318   YYYZ     -10.4492
      XXZZ   -3269.8262   XYZZ      16.5018   YYZZ    -381.8270
      XZZZ     -32.0391   YZZZ      -4.2033   ZZZZ    -699.9354
 -----------------------------------------------------------------
 Calculating analytic gradient of the SCF energy
 Gradient of SCF Energy
            1           2           3           4           5           6
    1  -0.0018394  -0.0009923   0.0000149  -0.0000351  -0.0013331   0.0000821
    2   0.0016114  -0.0014258  -0.0052677   0.0004719   0.0055093   0.0000537
    3   0.0016940   0.0000902   0.0024662  -0.0000701  -0.0011678  -0.0004973
            7           8           9          10          11          12
    1   0.0005146  -0.0008040  -0.0004214   0.0006346  -0.0000114   0.0005203
    2   0.0023165   0.0045993   0.0008059  -0.0045869   0.0000976   0.0048319
    3  -0.0008797  -0.0013016  -0.0005175   0.0015949   0.0002478  -0.0014640
           13          14          15          16          17          18
    1   0.0003866   0.0010455   0.0006388  -0.0000086  -0.0019114  -0.0006238
    2   0.0007895   0.0019997   0.0050150   0.0006887  -0.0044681  -0.0003528
    3  -0.0004832  -0.0006292  -0.0017339  -0.0005096   0.0011925   0.0002380
           19          20          21          22          23          24
    1  -0.0047930  -0.0005114  -0.0007904  -0.0007075  -0.0002087   0.0003598
    2   0.0051945   0.0004965  -0.0000081  -0.0097483  -0.0007650  -0.0001850
    3  -0.0018666  -0.0003530  -0.0001756   0.0036145   0.0003839   0.0007535
           25          26          27          28          29          30
    1  -0.0000750  -0.0058984   0.0000302  -0.0000145  -0.0005142  -0.0027247
    2  -0.0005890   0.0059702   0.0003730   0.0005966   0.0006778  -0.0092223
    3  -0.0001679   0.0056520   0.0001655   0.0007538  -0.0000895   0.0027857
           31          32          33          34          35          36
    1  -0.0008332   0.0002107   0.0000589   0.0012281   0.0006801   0.0001687
    2  -0.0006076  -0.0004600  -0.0005266   0.0100419   0.0007725   0.0006847
    3   0.0001121   0.0010502  -0.0003720   0.0008601   0.0007358  -0.0005132
           37          38          39          40          41          42
    1   0.0111506   0.0009920   0.0010209   0.0038353   0.0004140   0.0004306
    2   0.0017130   0.0007678   0.0001514  -0.0023159   0.0001209   0.0004732
    3   0.0017156  -0.0004818   0.0002787  -0.0096524  -0.0005607  -0.0004566
           43          44          45          46          47          48
    1   0.0002274  -0.0051870   0.0002290  -0.0000173  -0.0003624   0.0051157
    2   0.0005635  -0.0063233  -0.0000026  -0.0005857  -0.0005202  -0.0080321
    3  -0.0005324  -0.0087385  -0.0003745  -0.0004877  -0.0004894   0.0076293
           49          50          51
    1   0.0000239   0.0006965  -0.0000920
    2  -0.0004938  -0.0004871  -0.0004142
    3  -0.0001319   0.0002951   0.0003884
 Max gradient component =       1.115E-02
 RMS gradient           =       2.850E-03
 Gradient time:  CPU 2218.28 s  wall 264.75 s
 Geometry Optimization Parameters
   NAtoms,    NIC,     NZ,  NCons,   NDum,   NFix, NCnnct, MaxDiis
       51     362      51       0       0       0       0       0


** GEOMETRY OPTIMIZATION IN DELOCALIZED INTERNAL COORDINATES **
   Searching for a Minimum

   Optimization Cycle:   1

                       Coordinates (Angstroms)
     ATOM                X               Y               Z
      1  C         3.3500269087    0.1371508614    0.1400295983
      2  C         3.6533231159    1.4302912004    0.5009945606
      3  C         2.0606043286   -0.5227283392    0.4482868710
      4  H         2.1354896067   -1.5754996299    0.7460009101
      5  C         0.8033486637    0.0079442418    0.2944730839
      6  H         0.7138165294    1.0310870329   -0.0876976003
      7  C        -0.4633417243   -0.6810466647    0.5280226887
      8  C        -1.6424688218   -0.0142169741    0.2241780135
      9  H        -1.5407795013    1.0117978655   -0.1554111443
     10  C        -2.9956721924   -0.4984536326    0.3188696175
     11  H        -3.1573755552   -1.5173852672    0.6828499226
     12  C        -4.0921327095    0.2586637611   -0.0446935205
     13  H        -3.9059764245    1.2784900865   -0.4075731328
     14  C        -5.4872826638   -0.1516256479   -0.0085773161
     15  C        -6.4544049194    0.7527044681   -0.4195247768
     16  H        -6.1012078180    1.7391530227   -0.7489245930
     17  C        -7.8921110994    0.5657607121   -0.4731308613
     18  H        -8.2965889423   -0.4030956932   -0.1594562385
     19  C        -8.7698835472    1.5224473682   -0.8895520456
     20  H        -9.8470435593    1.3438125354   -0.9157050409
     21  H        -8.4309794364    2.5110079622   -1.2155611557
     22  C        -0.4313443354   -2.1054345210    1.0687095014
     23  H        -1.4365786135   -2.5094812249    1.2509747093
     24  H         0.1272633205   -2.1527510669    2.0209693829
     25  H         0.0798818258   -2.7870977357    0.3635107044
     26  C         2.7188209979    2.3321684658    1.3012503754
     27  H         1.9312627587    1.7694402296    1.8221666592
     28  H         3.2930857326    2.9051821089    2.0532349570
     29  H         2.2202172713    3.0824121297    0.6550492132
     30  C        -5.8173193067   -1.5610665456    0.4732842883
     31  H        -6.8964494595   -1.7657803217    0.4711362288
     32  H        -5.4489157531   -1.7236078990    1.5026102089
     33  H        -5.3315909519   -2.3202891112   -0.1665949761
     34  C         4.9746455142    2.1106269999    0.1282078932
     35  H         5.3255455290    2.7138268386    0.9882141864
     36  H         4.7722470718    2.8482613831   -0.6794965052
     37  C         6.0891376419    1.1400742195   -0.3302698735
     38  H         6.8980816602    1.7013687064   -0.8326210423
     39  H         6.5464953638    0.6529385648    0.5509224879
     40  C         5.4982130447    0.0757210572   -1.2788706266
     41  H         6.2887496921   -0.5991594224   -1.6571132465
     42  H         5.0676221005    0.5881068365   -2.1620466659
     43  C         4.3778141630   -0.7829872278   -0.6076251255
     44  C         3.6690943162   -1.5946383605   -1.7435231394
     45  H         2.9197883027   -2.2963006217   -1.3431930772
     46  H         3.1579497725   -0.9191671329   -2.4507228040
     47  H         4.4173791975   -2.1818717210   -2.3061922259
     48  C         5.0138865822   -1.7969723575    0.4049362314
     49  H         5.5913014708   -1.2766777968    1.1862185256
     50  H         4.2402341047   -2.4028694665    0.9073815023
     51  H         5.6893509628   -2.4921497006   -0.1257827784
   Point Group: c1    Number of degrees of freedom:   147


   Energy is   -817.385990835


 Attempting to Generate Delocalized Internal Coordinates

147 Hessian modes will be used to form the next step
  Hessian Eigenvalues:
     0.002000    0.002000    0.003547    0.005472    0.005784    0.005808
     0.006018    0.009091    0.010363    0.011705    0.013498    0.013701
     0.013904    0.014372    0.015174    0.015687    0.017069    0.019152
     0.020011    0.020115    0.020372    0.020560    0.021004    0.021464
     0.023957    0.024210    0.024898    0.025938    0.027235    0.027235
     0.028333    0.029570    0.040332    0.046690    0.048012    0.050685
     0.051500    0.053252    0.053476    0.054795    0.055330    0.057343
     0.067988    0.068588    0.069080    0.069190    0.071513    0.071615
     0.071903    0.078307    0.078729    0.083364    0.097048    0.098164
     0.121644    0.132401    0.159598    0.159641    0.159885    0.159987
     0.159991    0.159998    0.160000    0.160000    0.160000    0.160000
     0.160000    0.160000    0.160000    0.160000    0.160000    0.160000
     0.160000    0.160000    0.160000    0.160000    0.160000    0.160000
     0.160000    0.160000    0.160000    0.188015    0.220000    0.220000
     0.220001    0.220003    0.220005    0.220041    0.220133    0.228730
     0.249865    0.249960    0.249969    0.249997    0.249997    0.249998
     0.258290    0.260305    0.261906    0.263607    0.272323    0.275914
     0.287484    0.298279    0.298449    0.299948    0.323462    0.327461
     0.327990    0.328644    0.330092    0.330154    0.330230    0.330398
     0.330973    0.330974    0.331045    0.331183    0.331273    0.331325
     0.332788    0.333005    0.334563    0.334793    0.337695    0.338266
     0.338350    0.338621    0.338648    0.338673    0.340590    0.341450
     0.341561    0.342740    0.343537    0.344664    0.345613    0.368720
     0.376388    0.381403    0.395373    0.476191    0.479564    0.481283
     0.488890    0.503469    0.522457

 Minimum Search - Taking Simple RFO Step
 Searching for Lamda that Minimizes Along All modes
 Value Taken    Lamda =  -0.00983030
 Step Taken.  Stepsize is  0.246812

                             Maximum     Tolerance    Cnvgd?
         Gradient           0.028188      0.000300      NO
         Displacement       0.102942      0.001200      NO
         Energy change     *********      0.000001      NO


 New Cartesian Coordinates Obtained by Inverse Iteration

 Displacement from previous Coordinates is:  2.546525
 ----------------------------------------------------------------
             Standard Nuclear Orientation (Angstroms)
    I     Atom           X                Y                Z
 ----------------------------------------------------------------
    1      C       3.3241748946     0.1340189095     0.0796515864
    2      C       3.6104130743     1.4230818726     0.4184359546
    3      C       2.0305071425    -0.5023719801     0.3277640961
    4      H       2.0759335498    -1.5554963853     0.6327127333
    5      C       0.8013813592     0.0556317236     0.1444684137
    6      H       0.7355020679     1.0892031970    -0.2127099153
    7      C      -0.4602820733    -0.6172609420     0.3539596211
    8      C      -1.6284449634     0.0615426944     0.0917065043
    9      H      -1.5316325386     1.1015831021    -0.2446017190
   10      C      -2.9646197593    -0.4326096525     0.2063485493
   11      H      -3.1070813792    -1.4674231139     0.5315254392
   12      C      -4.0707333877     0.3249344921    -0.0789534088
   13      H      -3.9185565542     1.3625729613    -0.4004031791
   14      C      -5.4381477800    -0.1196931747     0.0057009606
   15      C      -6.4464971281     0.7584604758    -0.3132331332
   16      H      -6.1495203884     1.7710333633    -0.6136582510
   17      C      -7.8635675393     0.5066180478    -0.2987618589
   18      H      -8.2042911763    -0.4931523778    -0.0105749421
   19      C      -8.7958698860     1.4345422970    -0.6235872085
   20      H      -9.8633790092     1.2079831539    -0.5997231217
   21      H      -8.5129737569     2.4504642961    -0.9183608195
   22      C      -0.4335960525    -2.0388562653     0.8414619723
   23      H      -1.4415721864    -2.4388394391     1.0122591460
   24      H       0.1273604569    -2.1193327226     1.7886265764
   25      H       0.0719641014    -2.6977841311     0.1120914375
   26      C       2.6323336102     2.3460319603     1.0943950158
   27      H       1.7954991525     1.8060100238     1.5599333325
   28      H       3.1468060643     2.9368859871     1.8734807021
   29      H       2.2038157443     3.0768457975     0.3810695776
   30      C      -5.6931319017    -1.5377626910     0.4417854382
   31      H      -6.7629864615    -1.7761136142     0.4856319420
   32      H      -5.2673656588    -1.7225226954     1.4430317131
   33      H      -5.2157888885    -2.2547619762    -0.2493884568
   34      C       4.9516347336     2.0621186921     0.1448599580
   35      H       5.2331704530     2.6867190139     1.0125848942
   36      H       4.8379310400     2.7721795378    -0.7022589700
   37      C       6.0622493959     1.0621610961    -0.1683634026
   38      H       6.9309791830     1.5858348073    -0.6023258367
   39      H       6.4122820397     0.5862112011     0.7653827268
   40      C       5.5434668095     0.0046724404    -1.1339436966
   41      H       6.3474036086    -0.6979443083    -1.4204820109
   42      H       5.2004760141     0.4995468444    -2.0634470199
   43      C       4.3727386087    -0.8024528469    -0.5458293263
   44      C       3.7495635441    -1.6185513498    -1.6927400665
   45      H       2.9574233984    -2.2958420077    -1.3337384317
   46      H       3.3088291110    -0.9491367588    -2.4512774141
   47      H       4.5312829822    -2.2301150588    -2.1778404300
   48      C       4.8919941199    -1.7762628874     0.5298865720
   49      H       5.4067938599    -1.2376610533     1.3425956732
   50      H       4.0623532538    -2.3503856605     0.9776348363
   51      H       5.5990053113    -2.4964703197     0.0798400563
 ----------------------------------------------------------------
 Molecular Point Group                 C1    NOp =  1
 Largest Abelian Subgroup              C1    NOp =  1
 Nuclear Repulsion Energy =  1522.8423286546 hartrees
 There are       78 alpha and       78 beta electrons
 Applying Cartesian multipole field
    Component          Value
    ---------          -----
     (2,0,0)        1.00000E-12
     (0,2,0)        2.00000E-11
     (0,0,2)       -3.00000E-11
 Nucleus-field energy     =     0.0000000239 hartrees
 Requested basis set is VDZ
 There are 165 shells and 249 basis functions
 A cutoff of  1.0D-11 yielded   8548 shell pairs
 There are     19892 function pairs
 Smallest overlap matrix eigenvalue = 8.04E-04
 Guess MOs from SCF MO coefficient file

 -----------------------------------------------------------------------
  General SCF calculation program by
  Eric Jon Sundstrom, Paul Horn, Yuezhi Mao, Dmitri Zuev, Alec White,
  David Stuck, Shaama M.S., Shane Yost, Joonho Lee, David Small,
  Daniel Levine, Susi Lehtola, Hugh Burton, Evgeny Epifanovsky
 -----------------------------------------------------------------------
 Exchange:  B97M-V      Correlation:  B97M-V
 Using SG-2 standard quadrature grid
 Nonlocal Correlation:  rVV10 with C = 0.0100 and b = 6.00 and scale = 1.00000
 Grid used for NLC:  SG-1 standard quadrature
 using 12 threads for integral computing
 -------------------------------------------------------
 OpenMP Integral computing Module                
 Release: version 1.0, May 2013, Q-Chem Inc. Pittsburgh 
 -------------------------------------------------------
 -------------------------------------------------------
 OpenMP BLAS3 based DFT computing Module                
 Release: version 1.0, May 2013, Q-Chem Inc. Pittsburgh 
 -------------------------------------------------------
 -------------------------------------------------------
 OpenMP BLAS3 based DFT computing Module                
 Release: version 1.0, May 2013, Q-Chem Inc. Pittsburgh 
 -------------------------------------------------------
 -------------------------------------------------------
 OpenMP BLAS3 based DFT computing Module                
 Release: version 1.0, May 2013, Q-Chem Inc. Pittsburgh 
 -------------------------------------------------------
 Nonlocal correlation = 0.572690394747
 A restricted SCF calculation will be
 performed using DIIS
 SCF converges when DIIS error is below 1.0e-08
 ---------------------------------------
  Cycle       Energy         DIIS error
 ---------------------------------------
 Nonlocal correlation = 5.729668154429e-01
    1    -817.3591159347      1.33e-03  
 Nonlocal correlation = 5.728150922135e-01
    2    -817.3895163513      1.80e-04  
 Nonlocal correlation = 5.728499756191e-01
    3    -817.3888149743      3.12e-04  
 Nonlocal correlation = 5.728745990584e-01
    4    -817.3897125286      9.89e-05  
 Nonlocal correlation = 5.728775561339e-01
    5    -817.3898227135      1.82e-05  
 Nonlocal correlation = 5.728773990742e-01
    6    -817.3898250290      1.06e-05  
 Nonlocal correlation = 5.728768416155e-01
    7    -817.3898261247      3.28e-06  
 Nonlocal correlation = 5.728767747044e-01
    8    -817.3898262274      1.02e-06  
 Nonlocal correlation = 5.728767565182e-01
    9    -817.3898262359      5.64e-07  
 Nonlocal correlation = 5.728767672335e-01
   10    -817.3898262390      1.06e-07  
 Nonlocal correlation = 5.728767665289e-01
   11    -817.3898262391      5.00e-08  
 Nonlocal correlation = 5.728767656355e-01
   12    -817.3898262391      1.06e-08  
   13    -817.3898262392      2.25e-09  Convergence criterion met
 ---------------------------------------
 SCF time:   CPU 17448.66s  wall 1458.00s 
 SCF   energy in the final basis set =     -817.3898262392
 Total energy in the final basis set =     -817.3898262392
 
 --------------------------------------------------------------
 
                    Orbital Energies (a.u.)
 --------------------------------------------------------------
 
 Alpha MOs
 -- Occupied --
-10.205 -10.205 -10.204 -10.196 -10.194 -10.192 -10.189 -10.189
-10.189 -10.189 -10.188 -10.186 -10.185 -10.182 -10.182 -10.182
-10.181 -10.179 -10.174 -10.173 -10.170  -0.834  -0.816  -0.802
 -0.767  -0.765  -0.750  -0.726  -0.700  -0.667  -0.664  -0.656
 -0.654  -0.648  -0.609  -0.578  -0.552  -0.539  -0.517  -0.508
 -0.498  -0.480  -0.462  -0.453  -0.446  -0.432  -0.426  -0.418
 -0.409  -0.400  -0.398  -0.397  -0.394  -0.382  -0.382  -0.376
 -0.373  -0.367  -0.361  -0.357  -0.350  -0.345  -0.342  -0.335
 -0.328  -0.325  -0.321  -0.316  -0.313  -0.313  -0.298  -0.294
 -0.289  -0.276  -0.268  -0.235  -0.206  -0.167
 -- Virtual --
 -0.091  -0.038   0.003   0.030   0.037   0.040   0.049   0.056
  0.059   0.068   0.069   0.072   0.076   0.077   0.084   0.092
  0.094   0.098   0.111   0.113   0.118   0.125   0.130   0.135
  0.136   0.139   0.144   0.150   0.153   0.158   0.173   0.177
  0.180   0.186   0.191   0.196   0.199   0.207   0.213   0.220
  0.226   0.228   0.240   0.252   0.258   0.260   0.281   0.303
  0.309   0.325   0.335   0.355   0.360   0.372   0.374   0.379
  0.391   0.401   0.420   0.426   0.433   0.439   0.448   0.452
  0.453   0.461   0.467   0.469   0.473   0.480   0.485   0.499
  0.505   0.512   0.515   0.517   0.521   0.525   0.534   0.544
  0.560   0.577   0.580   0.586   0.594   0.611   0.614   0.618
  0.622   0.631   0.635   0.638   0.640   0.648   0.651   0.657
  0.661   0.663   0.665   0.668   0.673   0.679   0.683   0.688
  0.690   0.695   0.698   0.703   0.706   0.707   0.708   0.713
  0.715   0.720   0.720   0.725   0.728   0.732   0.734   0.737
  0.739   0.744   0.747   0.749   0.760   0.764   0.769   0.776
  0.779   0.786   0.790   0.796   0.806   0.811   0.833   0.837
  0.842   0.860   0.868   0.881   0.887   0.899   0.902   0.911
  0.930   0.954   0.969   1.007   1.015   1.046   1.056   1.088
  1.108   1.117   1.144   1.157   1.168   1.182   1.190   1.209
  1.227   1.266   1.281   1.283   1.311   1.335   1.340   1.362
  1.382   1.437   1.510
 --------------------------------------------------------------
 
          Ground-State Mulliken Net Atomic Charges

     Atom                 Charge (a.u.)
  ----------------------------------------
      1 C                     0.069275
      2 C                    -0.145221
      3 C                    -0.107660
      4 H                     0.091203
      5 C                    -0.113880
      6 H                     0.075565
      7 C                    -0.056121
      8 C                    -0.121493
      9 H                     0.066528
     10 C                    -0.063430
     11 H                     0.087127
     12 C                    -0.120695
     13 H                     0.067987
     14 C                    -0.047804
     15 C                    -0.131855
     16 H                     0.068156
     17 C                    -0.068539
     18 H                     0.084709
     19 C                    -0.216817
     20 H                     0.104946
     21 H                     0.103643
     22 C                    -0.243580
     23 H                     0.117970
     24 H                     0.125522
     25 H                     0.126179
     26 C                    -0.261182
     27 H                     0.138220
     28 H                     0.103524
     29 H                     0.121870
     30 C                    -0.248147
     31 H                     0.119729
     32 H                     0.126692
     33 H                     0.126609
     34 C                    -0.159364
     35 H                     0.096814
     36 H                     0.106693
     37 C                    -0.149854
     38 H                     0.093652
     39 H                     0.100990
     40 C                    -0.115852
     41 H                     0.088632
     42 H                     0.091753
     43 C                    -0.380245
     44 C                    -0.177957
     45 H                     0.102770
     46 H                     0.105804
     47 H                     0.100730
     48 C                    -0.207426
     49 H                     0.111759
     50 H                     0.109184
     51 H                     0.102885
  ----------------------------------------
  Sum of atomic charges =    -0.000000

 -----------------------------------------------------------------
                    Cartesian Multipole Moments
 -----------------------------------------------------------------
    Charge (ESU x 10^10)
                -0.0000
    Dipole Moment (Debye)
         X       0.9107      Y      -0.4570      Z       0.2607
       Tot       1.0517
    Quadrupole Moments (Debye-Ang)
        XX    -129.0600     XY       4.5856     YY    -126.5772
        XZ      -1.2075     YZ      -2.9688     ZZ    -138.0612
    Octopole Moments (Debye-Ang^2)
       XXX       7.3432    XXY     -15.6031    XYY      -6.1915
       YYY       1.8809    XXZ       1.7889    XYZ      13.6136
       YYZ      -0.3710    XZZ      20.5350    YZZ      -1.3154
       ZZZ       6.4424
    Hexadecapole Moments (Debye-Ang^3)
      XXXX  -17389.1521   XXXY     204.8046   XXYY   -3134.6331
      XYYY      29.4209   YYYY   -1573.7713   XXXZ       5.7063
      XXYZ     -78.0844   XYYZ      31.0886   YYYZ     -28.0837
      XXZZ   -3232.8310   XYZZ      31.1114   YYZZ    -359.3946
      XZZZ      16.7097   YZZZ     -24.0529   ZZZZ    -585.4548
 -----------------------------------------------------------------
 Calculating analytic gradient of the SCF energy
 Gradient of SCF Energy
            1           2           3           4           5           6
    1   0.0005653   0.0003395  -0.0022645   0.0003104   0.0023127   0.0004759
    2   0.0041922  -0.0049253  -0.0000048  -0.0011179  -0.0010959   0.0018402
    3  -0.0003921  -0.0008372  -0.0003272   0.0011528   0.0002078   0.0010600
            7           8           9          10          11          12
    1  -0.0008548   0.0013225  -0.0000773  -0.0008139  -0.0001879   0.0003018
    2   0.0011091  -0.0009516   0.0004059   0.0000500  -0.0009352  -0.0014165
    3  -0.0008454   0.0001265   0.0002016  -0.0003616   0.0005981   0.0003273
           13          14          15          16          17          18
    1  -0.0001242  -0.0002910   0.0009538   0.0000716  -0.0000054  -0.0000438
    2   0.0003734   0.0013046  -0.0011007   0.0001842   0.0002625  -0.0004524
    3  -0.0000462  -0.0005162   0.0003065  -0.0000437  -0.0001943   0.0002321
           19          20          21          22          23          24
    1   0.0018047   0.0001123  -0.0000328   0.0008109  -0.0009304   0.0003216
    2  -0.0007596  -0.0002098   0.0001044  -0.0001687   0.0007677   0.0006799
    3   0.0002380   0.0001263  -0.0000028   0.0003799  -0.0001645  -0.0000472
           25          26          27          28          29          30
    1  -0.0000836  -0.0010318  -0.0007974   0.0002764   0.0006068   0.0007288
    2   0.0004487   0.0006824  -0.0016932  -0.0005347  -0.0003207  -0.0005201
    3  -0.0003930  -0.0008987  -0.0007783   0.0000080  -0.0002522   0.0003076
           31          32          33          34          35          36
    1  -0.0006165   0.0002197   0.0002173  -0.0002769  -0.0000118  -0.0002187
    2   0.0008112   0.0006284   0.0005025   0.0013177  -0.0008154  -0.0005129
    3  -0.0001709  -0.0000512  -0.0003459  -0.0003003   0.0003531  -0.0000400
           37          38          39          40          41          42
    1  -0.0001940  -0.0007825  -0.0000860  -0.0014779  -0.0000605  -0.0003217
    2  -0.0012825   0.0003402  -0.0002473  -0.0004971  -0.0002567   0.0000896
    3   0.0014105  -0.0009463   0.0002132  -0.0005382   0.0007367   0.0001063
           43          44          45          46          47          48
    1   0.0004672  -0.0001663  -0.0000830   0.0002443   0.0004071  -0.0000301
    2   0.0003629  -0.0000201   0.0003226   0.0005023   0.0003283   0.0004355
    3  -0.0002098  -0.0000310   0.0010789   0.0005116   0.0005424  -0.0001535
           49          50          51
    1   0.0001092  -0.0009484  -0.0001667
    2   0.0010007   0.0003521   0.0004398
    3  -0.0003707  -0.0003378  -0.0006292
 Max gradient component =       4.925E-03
 RMS gradient           =       8.565E-04
 Gradient time:  CPU 2219.12 s  wall 265.63 s
 Geometry Optimization Parameters
   NAtoms,    NIC,     NZ,  NCons,   NDum,   NFix, NCnnct, MaxDiis
       51     362      51       0       0       0       0       0

 Cartesian Hessian Update
 Hessian Updated using BFGS Update


** GEOMETRY OPTIMIZATION IN DELOCALIZED INTERNAL COORDINATES **
   Searching for a Minimum

   Optimization Cycle:   2

                       Coordinates (Angstroms)
     ATOM                X               Y               Z
      1  C         3.3241748946    0.1340189095    0.0796515864
      2  C         3.6104130743    1.4230818726    0.4184359546
      3  C         2.0305071425   -0.5023719801    0.3277640961
      4  H         2.0759335498   -1.5554963853    0.6327127333
      5  C         0.8013813592    0.0556317236    0.1444684137
      6  H         0.7355020679    1.0892031970   -0.2127099153
      7  C        -0.4602820733   -0.6172609420    0.3539596211
      8  C        -1.6284449634    0.0615426944    0.0917065043
      9  H        -1.5316325386    1.1015831021   -0.2446017190
     10  C        -2.9646197593   -0.4326096525    0.2063485493
     11  H        -3.1070813792   -1.4674231139    0.5315254392
     12  C        -4.0707333877    0.3249344921   -0.0789534088
     13  H        -3.9185565542    1.3625729613   -0.4004031791
     14  C        -5.4381477800   -0.1196931747    0.0057009606
     15  C        -6.4464971281    0.7584604758   -0.3132331332
     16  H        -6.1495203884    1.7710333633   -0.6136582510
     17  C        -7.8635675393    0.5066180478   -0.2987618589
     18  H        -8.2042911763   -0.4931523778   -0.0105749421
     19  C        -8.7958698860    1.4345422970   -0.6235872085
     20  H        -9.8633790092    1.2079831539   -0.5997231217
     21  H        -8.5129737569    2.4504642961   -0.9183608195
     22  C        -0.4335960525   -2.0388562653    0.8414619723
     23  H        -1.4415721864   -2.4388394391    1.0122591460
     24  H         0.1273604569   -2.1193327226    1.7886265764
     25  H         0.0719641014   -2.6977841311    0.1120914375
     26  C         2.6323336102    2.3460319603    1.0943950158
     27  H         1.7954991525    1.8060100238    1.5599333325
     28  H         3.1468060643    2.9368859871    1.8734807021
     29  H         2.2038157443    3.0768457975    0.3810695776
     30  C        -5.6931319017   -1.5377626910    0.4417854382
     31  H        -6.7629864615   -1.7761136142    0.4856319420
     32  H        -5.2673656588   -1.7225226954    1.4430317131
     33  H        -5.2157888885   -2.2547619762   -0.2493884568
     34  C         4.9516347336    2.0621186921    0.1448599580
     35  H         5.2331704530    2.6867190139    1.0125848942
     36  H         4.8379310400    2.7721795378   -0.7022589700
     37  C         6.0622493959    1.0621610961   -0.1683634026
     38  H         6.9309791830    1.5858348073   -0.6023258367
     39  H         6.4122820397    0.5862112011    0.7653827268
     40  C         5.5434668095    0.0046724404   -1.1339436966
     41  H         6.3474036086   -0.6979443083   -1.4204820109
     42  H         5.2004760141    0.4995468444   -2.0634470199
     43  C         4.3727386087   -0.8024528469   -0.5458293263
     44  C         3.7495635441   -1.6185513498   -1.6927400665
     45  H         2.9574233984   -2.2958420077   -1.3337384317
     46  H         3.3088291110   -0.9491367588   -2.4512774141
     47  H         4.5312829822   -2.2301150588   -2.1778404300
     48  C         4.8919941199   -1.7762628874    0.5298865720
     49  H         5.4067938599   -1.2376610533    1.3425956732
     50  H         4.0623532538   -2.3503856605    0.9776348363
     51  H         5.5990053113   -2.4964703197    0.0798400563
   Point Group: c1    Number of degrees of freedom:   147


   Energy is   -817.389826239

 Hessian Updated using BFGS Update

130 Hessian modes will be used to form the next step
  Hessian Eigenvalues:
     0.002000    0.002000    0.003539    0.005474    0.005784    0.005806
     0.006016    0.009095    0.010360    0.012091    0.013498    0.013702
     0.014079    0.014395    0.015176    0.015687    0.017045    0.019309
     0.020011    0.020116    0.020490    0.020598    0.021005    0.021463
     0.023948    0.024212    0.024896    0.025993    0.027235    0.027237
     0.028430    0.029604    0.040564    0.046691    0.048022    0.050834
     0.051500    0.053256    0.053477    0.054797    0.055326    0.057374
     0.067991    0.068593    0.069081    0.069190    0.071512    0.071615
     0.071891    0.078327    0.078745    0.083372    0.097041    0.098162
     0.121652    0.132451    0.158839    0.159643    0.159737    0.159898
     0.159989    0.159991    0.159998    0.161069    0.188079    0.214815
     0.220000    0.220001    0.220003    0.220019    0.220031    0.223497
     0.229336    0.242508    0.249925    0.249965    0.249982    0.249997
     0.250248    0.259587    0.260310    0.262780    0.269835    0.272060
     0.278656    0.291279    0.298361    0.299275    0.306580    0.323502
     0.327495    0.327985    0.328648    0.330095    0.330155    0.330227
     0.330381    0.330950    0.330975    0.331039    0.331189    0.331276
     0.331311    0.332808    0.333007    0.334575    0.334802    0.337718
     0.338173    0.338324    0.338536    0.338636    0.338668    0.340597
     0.341301    0.341546    0.342740    0.343421    0.345612    0.349891
     0.371153    0.379659    0.385680    0.397554    0.476734    0.479312
     0.487402    0.498530    0.519408    0.551636

 Minimum Search - Taking Simple RFO Step
 Searching for Lamda that Minimizes Along All modes
 Value Taken    Lamda =  -0.00147328
 Step Taken.  Stepsize is  0.244211

                             Maximum     Tolerance    Cnvgd?
         Gradient           0.010542      0.000300      NO
         Displacement       0.072937      0.001200      NO
         Energy change     -0.003835      0.000001      NO


 New Cartesian Coordinates Obtained by Inverse Iteration

 Displacement from previous Coordinates is:  0.714820
 ----------------------------------------------------------------
             Standard Nuclear Orientation (Angstroms)
    I     Atom           X                Y                Z
 ----------------------------------------------------------------
    1      C       3.3274832381     0.1562796785     0.0867150234
    2      C       3.6330736694     1.4477096657     0.4231706446
    3      C       2.0289410437    -0.4759496066     0.3329020185
    4      H       2.0788911460    -1.5219630029     0.6551030087
    5      C       0.7898168096     0.0526817187     0.1140599606
    6      H       0.7087195460     1.0646245016    -0.2931573997
    7      C      -0.4663501365    -0.6308216717     0.3351295976
    8      C      -1.6403716032     0.0343476240     0.0526702540
    9      H      -1.5452399795     1.0650077805    -0.3102127855
   10      C      -2.9778490387    -0.4543098027     0.1836258847
   11      H      -3.1183740141    -1.4817096913     0.5280925526
   12      C      -4.0884057035     0.2981337253    -0.1046214242
   13      H      -3.9372366316     1.3293026281    -0.4448220595
   14      C      -5.4585656076    -0.1404455526     0.0015001361
   15      C      -6.4657893312     0.7404406298    -0.3216861880
   16      H      -6.1625778924     1.7454601330    -0.6393836341
   17      C      -7.8860743792     0.5046618216    -0.2933050414
   18      H      -8.2346178773    -0.4871294774     0.0100827202
   19      C      -8.8131274100     1.4363559681    -0.6253684614
   20      H      -9.8827019060     1.2209198336    -0.5920957586
   21      H      -8.5218795682     2.4447241686    -0.9371281210
   22      C      -0.4266027535    -2.0386894786     0.8609459019
   23      H      -1.4278012791    -2.4555833174     1.0261311300
   24      H       0.1176364607    -2.0880555622     1.8196923551
   25      H       0.1035131291    -2.7098042012     0.1607566076
   26      C       2.6974964744     2.3869323560     1.1355830004
   27      H       1.8919444900     1.8685231714     1.6721622238
   28      H       3.2602898708     2.9980659216     1.8640401993
   29      H       2.2244272441     3.1027976090     0.4349269397
   30      C      -5.7164052797    -1.5501466044     0.4626269749
   31      H      -6.7849886392    -1.7887762832     0.5178352033
   32      H      -5.2864138108    -1.7223646990     1.4642403348
   33      H      -5.2459459065    -2.2826009056    -0.2168006695
   34      C       4.9808130818     2.0657619890     0.1358768654
   35      H       5.2673174452     2.7075913598     0.9893064758
   36      H       4.8775908554     2.7616519219    -0.7245860865
   37      C       6.0806896775     1.0499951117    -0.1506456627
   38      H       6.9700188041     1.5536051753    -0.5659937190
   39      H       6.4030236139     0.5738743798     0.7924097563
   40      C       5.5594532426    -0.0022989848    -1.1165971085
   41      H       6.3562658368    -0.7156185724    -1.3966686278
   42      H       5.2366519602     0.4966203725    -2.0510083651
   43      C       4.3660676919    -0.7925149710    -0.5460256880
   44      C       3.7404065505    -1.5762957281    -1.7153382680
   45      H       2.9368817067    -2.2535819870    -1.3832594661
   46      H       3.3134567118    -0.8875450227    -2.4646388739
   47      H       4.5163424401    -2.1875471946    -2.2103104807
   48      C       4.8577110868    -1.7987870520     0.5152603974
   49      H       5.3631359378    -1.2907843088     1.3528020011
   50      H       4.0183362156    -2.3783467137     0.9358423124
   51      H       5.5661529828    -2.5163142777     0.0627862189
 ----------------------------------------------------------------
 Molecular Point Group                 C1    NOp =  1
 Largest Abelian Subgroup              C1    NOp =  1
 Nuclear Repulsion Energy =  1519.4456122545 hartrees
 There are       78 alpha and       78 beta electrons
 Applying Cartesian multipole field
    Component          Value
    ---------          -----
     (2,0,0)        1.00000E-12
     (0,2,0)        2.00000E-11
     (0,0,2)       -3.00000E-11
 Nucleus-field energy     =     0.0000000239 hartrees
 Requested basis set is VDZ
 There are 165 shells and 249 basis functions
 A cutoff of  1.0D-11 yielded   8526 shell pairs
 There are     19816 function pairs
 Smallest overlap matrix eigenvalue = 8.37E-04
 Guess MOs from SCF MO coefficient file

 -----------------------------------------------------------------------
  General SCF calculation program by
  Eric Jon Sundstrom, Paul Horn, Yuezhi Mao, Dmitri Zuev, Alec White,
  David Stuck, Shaama M.S., Shane Yost, Joonho Lee, David Small,
  Daniel Levine, Susi Lehtola, Hugh Burton, Evgeny Epifanovsky
 -----------------------------------------------------------------------
 Exchange:  B97M-V      Correlation:  B97M-V
 Using SG-2 standard quadrature grid
 Nonlocal Correlation:  rVV10 with C = 0.0100 and b = 6.00 and scale = 1.00000
 Grid used for NLC:  SG-1 standard quadrature
 using 12 threads for integral computing
 -------------------------------------------------------
 OpenMP Integral computing Module                
 Release: version 1.0, May 2013, Q-Chem Inc. Pittsburgh 
 -------------------------------------------------------
 -------------------------------------------------------
 OpenMP BLAS3 based DFT computing Module                
 Release: version 1.0, May 2013, Q-Chem Inc. Pittsburgh 
 -------------------------------------------------------
 -------------------------------------------------------
 OpenMP BLAS3 based DFT computing Module                
 Release: version 1.0, May 2013, Q-Chem Inc. Pittsburgh 
 -------------------------------------------------------
 -------------------------------------------------------
 OpenMP BLAS3 based DFT computing Module                
 Release: version 1.0, May 2013, Q-Chem Inc. Pittsburgh 
 -------------------------------------------------------
 Nonlocal correlation = 0.573267319349
 A restricted SCF calculation will be
 performed using DIIS
 SCF converges when DIIS error is below 1.0e-08
 ---------------------------------------
  Cycle       Energy         DIIS error
 ---------------------------------------
 Nonlocal correlation = 5.732308389707e-01
    1    -817.3857438852      4.90e-04  
 Nonlocal correlation = 5.732478100193e-01
    2    -817.3900306025      3.84e-05  
 Nonlocal correlation = 5.732441682072e-01
    3    -817.3900134096      5.73e-05  
 Nonlocal correlation = 5.732407058735e-01
    4    -817.3900417046      1.97e-05  
 Nonlocal correlation = 5.732407567605e-01
    5    -817.3900454873      6.56e-06  
 Nonlocal correlation = 5.732409209522e-01
    6    -817.3900458094      3.53e-06  
 Nonlocal correlation = 5.732410753741e-01
    7    -817.3900459392      8.23e-07  
 Nonlocal correlation = 5.732410571322e-01
    8    -817.3900459468      2.72e-07  
 Nonlocal correlation = 5.732410411632e-01
    9    -817.3900459473      1.31e-07  
 Nonlocal correlation = 5.732410423452e-01
   10    -817.3900459475      3.28e-08  
 Nonlocal correlation = 5.732410443631e-01
   11    -817.3900459475      1.79e-08  
   12    -817.3900459475      3.34e-09  Convergence criterion met
 ---------------------------------------
 SCF time:   CPU 16100.01s  wall 1346.00s 
 SCF   energy in the final basis set =     -817.3900459475
 Total energy in the final basis set =     -817.3900459475
 
 --------------------------------------------------------------
 
                    Orbital Energies (a.u.)
 --------------------------------------------------------------
 
 Alpha MOs
 -- Occupied --
-10.206 -10.206 -10.204 -10.197 -10.195 -10.192 -10.191 -10.190
-10.190 -10.189 -10.189 -10.187 -10.184 -10.183 -10.183 -10.182
-10.180 -10.178 -10.174 -10.173 -10.170  -0.833  -0.815  -0.802
 -0.766  -0.765  -0.750  -0.726  -0.700  -0.667  -0.664  -0.656
 -0.654  -0.648  -0.609  -0.578  -0.552  -0.539  -0.517  -0.508
 -0.498  -0.479  -0.462  -0.453  -0.446  -0.432  -0.425  -0.418
 -0.409  -0.400  -0.397  -0.396  -0.394  -0.382  -0.382  -0.376
 -0.371  -0.367  -0.361  -0.356  -0.350  -0.345  -0.342  -0.334
 -0.328  -0.324  -0.320  -0.317  -0.313  -0.312  -0.298  -0.294
 -0.288  -0.276  -0.268  -0.234  -0.206  -0.168
 -- Virtual --
 -0.091  -0.039   0.002   0.030   0.036   0.040   0.049   0.056
  0.058   0.068   0.069   0.072   0.076   0.077   0.084   0.091
  0.094   0.098   0.109   0.112   0.118   0.124   0.130   0.135
  0.136   0.139   0.144   0.150   0.152   0.159   0.173   0.178
  0.179   0.185   0.191   0.196   0.199   0.207   0.214   0.220
  0.225   0.228   0.239   0.252   0.258   0.260   0.280   0.303
  0.309   0.324   0.333   0.353   0.360   0.373   0.373   0.378
  0.390   0.398   0.418   0.426   0.433   0.439   0.447   0.452
  0.453   0.459   0.465   0.469   0.472   0.475   0.485   0.498
  0.501   0.512   0.514   0.517   0.518   0.521   0.535   0.544
  0.558   0.576   0.579   0.588   0.596   0.610   0.615   0.618
  0.620   0.631   0.635   0.638   0.640   0.648   0.652   0.657
  0.660   0.663   0.664   0.668   0.673   0.678   0.684   0.688
  0.689   0.694   0.696   0.701   0.703   0.707   0.709   0.712
  0.715   0.719   0.720   0.723   0.728   0.733   0.735   0.736
  0.737   0.743   0.746   0.747   0.758   0.763   0.768   0.775
  0.778   0.784   0.789   0.795   0.804   0.808   0.830   0.836
  0.839   0.853   0.866   0.882   0.886   0.895   0.902   0.913
  0.928   0.955   0.969   1.006   1.008   1.041   1.055   1.084
  1.104   1.120   1.143   1.154   1.165   1.175   1.186   1.205
  1.226   1.262   1.278   1.281   1.308   1.333   1.338   1.359
  1.383   1.437   1.504
 --------------------------------------------------------------
 
          Ground-State Mulliken Net Atomic Charges

     Atom                 Charge (a.u.)
  ----------------------------------------
      1 C                     0.068582
      2 C                    -0.142220
      3 C                    -0.106747
      4 H                     0.088738
      5 C                    -0.107099
      6 H                     0.071128
      7 C                    -0.055828
      8 C                    -0.121487
      9 H                     0.066305
     10 C                    -0.061039
     11 H                     0.085074
     12 C                    -0.120306
     13 H                     0.067934
     14 C                    -0.046116
     15 C                    -0.132167
     16 H                     0.067920
     17 C                    -0.067666
     18 H                     0.083947
     19 C                    -0.216437
     20 H                     0.105426
     21 H                     0.103626
     22 C                    -0.244919
     23 H                     0.117975
     24 H                     0.125830
     25 H                     0.125942
     26 C                    -0.255624
     27 H                     0.133081
     28 H                     0.103708
     29 H                     0.121587
     30 C                    -0.249372
     31 H                     0.119666
     32 H                     0.126686
     33 H                     0.126449
     34 C                    -0.163461
     35 H                     0.096054
     36 H                     0.107470
     37 C                    -0.147520
     38 H                     0.093526
     39 H                     0.099970
     40 C                    -0.117608
     41 H                     0.088739
     42 H                     0.091394
     43 C                    -0.375891
     44 C                    -0.179912
     45 H                     0.103258
     46 H                     0.105683
     47 H                     0.100670
     48 C                    -0.210100
     49 H                     0.111894
     50 H                     0.110266
     51 H                     0.102991
  ----------------------------------------
  Sum of atomic charges =    -0.000000

 -----------------------------------------------------------------
                    Cartesian Multipole Moments
 -----------------------------------------------------------------
    Charge (ESU x 10^10)
                -0.0000
    Dipole Moment (Debye)
         X       0.8851      Y      -0.4640      Z       0.2877
       Tot       1.0399
    Quadrupole Moments (Debye-Ang)
        XX    -128.7088     XY       4.5859     YY    -126.5476
        XZ      -1.2562     YZ      -3.1134     ZZ    -137.8933
    Octopole Moments (Debye-Ang^2)
       XXX       5.9278    XXY     -15.0822    XYY      -5.4088
       YYY       1.8397    XXZ       2.9044    XYZ      14.4757
       YYZ       0.1782    XZZ      20.6085    YZZ      -1.0470
       ZZZ       7.6506
    Hexadecapole Moments (Debye-Ang^3)
      XXXX  -17445.2570   XXXY     180.6765   XXYY   -3149.3090
      XYYY      10.4223   YYYY   -1579.6530   XXXZ      -7.8176
      XXYZ     -82.7084   XYYZ      30.1265   YYYZ     -28.3418
      XXZZ   -3248.2864   XYZZ      22.4029   YYZZ    -361.6410
      XZZZ       9.8822   YZZZ     -25.1343   ZZZZ    -593.7360
 -----------------------------------------------------------------
 Calculating analytic gradient of the SCF energy
 Gradient of SCF Energy
            1           2           3           4           5           6
    1   0.0001747   0.0002748  -0.0003039   0.0000527  -0.0011306  -0.0005494
    2  -0.0009985   0.0012219  -0.0008868   0.0002543  -0.0009657  -0.0013903
    3  -0.0003565  -0.0012724  -0.0001940  -0.0000708  -0.0006605  -0.0004681
            7           8           9          10          11          12
    1  -0.0000265   0.0003985  -0.0000831  -0.0003321  -0.0000480  -0.0000748
    2   0.0004844  -0.0004839  -0.0001182   0.0000763   0.0003218  -0.0005770
    3  -0.0002307  -0.0000713   0.0002184  -0.0002575   0.0001197   0.0000915
           13          14          15          16          17          18
    1  -0.0000419  -0.0000782   0.0001528  -0.0000610  -0.0001492   0.0000252
    2  -0.0001135   0.0003583  -0.0005227  -0.0001402   0.0003964   0.0002075
    3   0.0000727  -0.0000815   0.0001211   0.0000534  -0.0001093  -0.0000659
           19          20          21          22          23          24
    1   0.0007416  -0.0000033   0.0000265   0.0002356   0.0001550   0.0000722
    2  -0.0005066  -0.0000610  -0.0000616   0.0000662   0.0002878   0.0002615
    3   0.0001655   0.0000589  -0.0000162   0.0003147   0.0000435  -0.0002785
           25          26          27          28          29          30
    1  -0.0001226   0.0011112   0.0016024   0.0005516   0.0005491   0.0001331
    2   0.0001439   0.0002793   0.0010255   0.0000996  -0.0001664  -0.0000599
    3  -0.0001069   0.0014797   0.0002229  -0.0000889  -0.0002841   0.0001541
           31          32          33          34          35          36
    1   0.0002346   0.0000008  -0.0000122  -0.0011625  -0.0001290  -0.0002025
    2   0.0002470   0.0002664   0.0002633  -0.0004166  -0.0003792  -0.0000316
    3   0.0000155  -0.0002093  -0.0000523  -0.0004115   0.0003380   0.0003026
           37          38          39          40          41          42
    1  -0.0007119  -0.0003542  -0.0000817  -0.0009923   0.0001584  -0.0001066
    2  -0.0004765   0.0000792   0.0000813   0.0000192   0.0000918   0.0000235
    3   0.0005217  -0.0003751  -0.0004490   0.0005440   0.0002648   0.0002132
           43          44          45          46          47          48
    1   0.0000437   0.0004075   0.0002075   0.0001095   0.0000725  -0.0001071
    2   0.0004268   0.0003551   0.0001459   0.0001361   0.0001670   0.0001791
    3   0.0005001   0.0004613   0.0000934   0.0002220   0.0002394  -0.0003002
           49          50          51
    1  -0.0002306  -0.0004162   0.0000198
    2   0.0000929   0.0002523   0.0000447
    3  -0.0001953  -0.0001161  -0.0001105
 Max gradient component =       1.602E-03
 RMS gradient           =       4.343E-04
 Gradient time:  CPU 2220.10 s  wall 265.25 s
 Geometry Optimization Parameters
   NAtoms,    NIC,     NZ,  NCons,   NDum,   NFix, NCnnct, MaxDiis
       51     362      51       0       0       0       0       0

 Cartesian Hessian Update
 Hessian Updated using BFGS Update


** GEOMETRY OPTIMIZATION IN DELOCALIZED INTERNAL COORDINATES **
   Searching for a Minimum

   Optimization Cycle:   3

                       Coordinates (Angstroms)
     ATOM                X               Y               Z
      1  C         3.3274832381    0.1562796785    0.0867150234
      2  C         3.6330736694    1.4477096657    0.4231706446
      3  C         2.0289410437   -0.4759496066    0.3329020185
      4  H         2.0788911460   -1.5219630029    0.6551030087
      5  C         0.7898168096    0.0526817187    0.1140599606
      6  H         0.7087195460    1.0646245016   -0.2931573997
      7  C        -0.4663501365   -0.6308216717    0.3351295976
      8  C        -1.6403716032    0.0343476240    0.0526702540
      9  H        -1.5452399795    1.0650077805   -0.3102127855
     10  C        -2.9778490387   -0.4543098027    0.1836258847
     11  H        -3.1183740141   -1.4817096913    0.5280925526
     12  C        -4.0884057035    0.2981337253   -0.1046214242
     13  H        -3.9372366316    1.3293026281   -0.4448220595
     14  C        -5.4585656076   -0.1404455526    0.0015001361
     15  C        -6.4657893312    0.7404406298   -0.3216861880
     16  H        -6.1625778924    1.7454601330   -0.6393836341
     17  C        -7.8860743792    0.5046618216   -0.2933050414
     18  H        -8.2346178773   -0.4871294774    0.0100827202
     19  C        -8.8131274100    1.4363559681   -0.6253684614
     20  H        -9.8827019060    1.2209198336   -0.5920957586
     21  H        -8.5218795682    2.4447241686   -0.9371281210
     22  C        -0.4266027535   -2.0386894786    0.8609459019
     23  H        -1.4278012791   -2.4555833174    1.0261311300
     24  H         0.1176364607   -2.0880555622    1.8196923551
     25  H         0.1035131291   -2.7098042012    0.1607566076
     26  C         2.6974964744    2.3869323560    1.1355830004
     27  H         1.8919444900    1.8685231714    1.6721622238
     28  H         3.2602898708    2.9980659216    1.8640401993
     29  H         2.2244272441    3.1027976090    0.4349269397
     30  C        -5.7164052797   -1.5501466044    0.4626269749
     31  H        -6.7849886392   -1.7887762832    0.5178352033
     32  H        -5.2864138108   -1.7223646990    1.4642403348
     33  H        -5.2459459065   -2.2826009056   -0.2168006695
     34  C         4.9808130818    2.0657619890    0.1358768654
     35  H         5.2673174452    2.7075913598    0.9893064758
     36  H         4.8775908554    2.7616519219   -0.7245860865
     37  C         6.0806896775    1.0499951117   -0.1506456627
     38  H         6.9700188041    1.5536051753   -0.5659937190
     39  H         6.4030236139    0.5738743798    0.7924097563
     40  C         5.5594532426   -0.0022989848   -1.1165971085
     41  H         6.3562658368   -0.7156185724   -1.3966686278
     42  H         5.2366519602    0.4966203725   -2.0510083651
     43  C         4.3660676919   -0.7925149710   -0.5460256880
     44  C         3.7404065505   -1.5762957281   -1.7153382680
     45  H         2.9368817067   -2.2535819870   -1.3832594661
     46  H         3.3134567118   -0.8875450227   -2.4646388739
     47  H         4.5163424401   -2.1875471946   -2.2103104807
     48  C         4.8577110868   -1.7987870520    0.5152603974
     49  H         5.3631359378   -1.2907843088    1.3528020011
     50  H         4.0183362156   -2.3783467137    0.9358423124
     51  H         5.5661529828   -2.5163142777    0.0627862189
   Point Group: c1    Number of degrees of freedom:   147


   Energy is   -817.390045947

 Hessian Updated using BFGS Update

131 Hessian modes will be used to form the next step
  Hessian Eigenvalues:
     0.001999    0.002002    0.003439    0.005377    0.005763    0.005857
     0.006054    0.009141    0.010482    0.012863    0.013501    0.013703
     0.014018    0.015171    0.015686    0.016240    0.016927    0.019959
     0.020012    0.020118    0.020545    0.021001    0.021385    0.021503
     0.023928    0.024212    0.024897    0.027048    0.027235    0.027242
     0.028653    0.031786    0.040214    0.046696    0.047978    0.050558
     0.051617    0.053254    0.053486    0.054798    0.055328    0.056871
     0.068221    0.069080    0.069185    0.069439    0.071509    0.071611
     0.072157    0.078499    0.078789    0.083377    0.097069    0.098029
     0.121694    0.132871    0.151436    0.159643    0.159667    0.159917
     0.159970    0.159990    0.159991    0.159998    0.161206    0.188170
     0.214929    0.219552    0.220000    0.220001    0.220005    0.220031
     0.222257    0.228399    0.248034    0.249892    0.249940    0.249983
     0.249995    0.253095    0.260059    0.260481    0.262934    0.271892
     0.272250    0.285320    0.295089    0.298361    0.299472    0.323425
     0.325196    0.327438    0.328012    0.328686    0.330139    0.330157
     0.330229    0.330691    0.330947    0.330984    0.331048    0.331172
     0.331279    0.331364    0.332727    0.332996    0.334606    0.334843
     0.338035    0.338291    0.338507    0.338630    0.338668    0.338911
     0.340509    0.341511    0.341682    0.342741    0.343352    0.345613
     0.365379    0.373596    0.380403    0.390331    0.398350    0.474124
     0.478650    0.488006    0.500857    0.521699    0.570361

 Minimum Search - Taking Simple RFO Step
 Searching for Lamda that Minimizes Along All modes
 Value Taken    Lamda =  -0.00108460
 Step Taken.  Stepsize is  0.184769

                             Maximum     Tolerance    Cnvgd?
         Gradient           0.007135      0.000300      NO
         Displacement       0.071494      0.001200      NO
         Energy change     -0.000220      0.000001      NO


 New Cartesian Coordinates Obtained by Inverse Iteration

 Displacement from previous Coordinates is:  1.631368
 ----------------------------------------------------------------
             Standard Nuclear Orientation (Angstroms)
    I     Atom           X                Y                Z
 ----------------------------------------------------------------
    1      C       3.3327653756     0.1347760571     0.0671981629
    2      C       3.5863763428     1.4478594214     0.3685790601
    3      C       2.0373913668    -0.5149916227     0.2907454844
    4      H       2.0940029210    -1.5634356179     0.6015349037
    5      C       0.7927013957     0.0096169703     0.0805917460
    6      H       0.7089723499     1.0309619602    -0.3024173364
    7      C      -0.4660649371    -0.6813283414     0.2857638863
    8      C      -1.6407118428     0.0011070368     0.0352181414
    9      H      -1.5395268499     1.0431532214    -0.2918262270
   10      C      -2.9838345001    -0.4784659629     0.1605759193
   11      H      -3.1305285350    -1.5183960584     0.4606746093
   12      C      -4.0925577755     0.2969626610    -0.0801682954
   13      H      -3.9328283710     1.3403584666    -0.3761567574
   14      C      -5.4704760237    -0.1284141272     0.0228104875
   15      C      -6.4682860817     0.7845941294    -0.2471300142
   16      H      -6.1500262184     1.7979743439    -0.5206893255
   17      C      -7.8944597558     0.5753681488    -0.2143726791
   18      H      -8.2589034646    -0.4231932829     0.0446636696
   19      C      -8.8090867780     1.5392017797    -0.4915621072
   20      H      -9.8822500800     1.3422014988    -0.4580652030
   21      H      -8.5024378938     2.5559368128    -0.7579721422
   22      C      -0.4294570032    -2.1099026378     0.7610044161
   23      H      -1.4298171886    -2.5380194034     0.8999130904
   24      H       0.1030378068    -2.1961693836     1.7239962574
   25      H       0.1107783812    -2.7554381600     0.0445264415
   26      C       2.5769074639     2.3825720807     0.9851437254
   27      H       1.7588563335     1.8578164345     1.4976759852
   28      H       3.0704369107     3.0474909635     1.7164704931
   29      H       2.1157498090     3.0491917391     0.2294636486
   30      C      -5.7470465988    -1.5563486573     0.4210253158
   31      H      -6.8180036918    -1.7852163975     0.4725069737
   32      H      -5.3147775001    -1.7832429356     1.4110943019
   33      H      -5.2917901252    -2.2655922031    -0.2927709826
   34      C       4.9285407339     2.0976788540     0.1064689751
   35      H       5.1610040923     2.7913765305     0.9355778759
   36      H       4.8417145395     2.7482745785    -0.7910805267
   37      C       6.0693830691     1.1029396108    -0.0895752704
   38      H       6.9699091737     1.6142156366    -0.4706430306
   39      H       6.3518696706     0.6666303153     0.8852976316
   40      C       5.6223564403     0.0045013110    -1.0455265493
   41      H       6.4500247647    -0.6931448754    -1.2705371993
   42      H       5.3312010342     0.4665737593    -2.0089887266
   43      C       4.4209076424    -0.8058183702    -0.5071196394
   44      C       3.8614663023    -1.6288801327    -1.6889497593
   45      H       3.0627249139    -2.3226973505    -1.3799959231
   46      H       3.4468292178    -0.9676601155    -2.4695696311
   47      H       4.6703917646    -2.2293082706    -2.1432388186
   48      C       4.8981264432    -1.7832904692     0.5934260460
   49      H       5.3527982708    -1.2509093280     1.4448455299
   50      H       4.0636608830    -2.3858326142     0.9897527734
   51      H       5.6472160169    -2.4855534280     0.1844334025
 ----------------------------------------------------------------
 Molecular Point Group                 C1    NOp =  1
 Largest Abelian Subgroup              C1    NOp =  1
 Nuclear Repulsion Energy =  1516.6581159047 hartrees
 There are       78 alpha and       78 beta electrons
 Applying Cartesian multipole field
    Component          Value
    ---------          -----
     (2,0,0)        1.00000E-12
     (0,2,0)        2.00000E-11
     (0,0,2)       -3.00000E-11
 Nucleus-field energy     =     0.0000000258 hartrees
 Requested basis set is VDZ
 There are 165 shells and 249 basis functions
 A cutoff of  1.0D-11 yielded   8499 shell pairs
 There are     19739 function pairs
 Smallest overlap matrix eigenvalue = 8.38E-04
 Guess MOs from SCF MO coefficient file

 -----------------------------------------------------------------------
  General SCF calculation program by
[...]
    3  -0.0000092  -0.0000076  -0.0000090
 Max gradient component =       3.253E-05
 RMS gradient           =       9.366E-06
 Gradient time:  CPU 2217.05 s  wall 264.45 s
 Geometry Optimization Parameters
   NAtoms,    NIC,     NZ,  NCons,   NDum,   NFix, NCnnct, MaxDiis
       51     362      51       0       0       0       0       0

 Cartesian Hessian Update
 Hessian Updated using BFGS Update


** GEOMETRY OPTIMIZATION IN DELOCALIZED INTERNAL COORDINATES **
   Searching for a Minimum

   Optimization Cycle:  12

                       Coordinates (Angstroms)
     ATOM                X               Y               Z
      1  C         3.3278093309    0.1549184220    0.0197061014
      2  C         3.5840100688    1.4739341926    0.2913451814
      3  C         2.0222854207   -0.4802337064    0.1924027239
      4  H         2.0670209199   -1.5411033673    0.4605670450
      5  C         0.7766601913    0.0492912900   -0.0006998716
      6  H         0.6759817595    1.0821012056   -0.3421780826
      7  C        -0.4714639915   -0.6638212828    0.1758815106
      8  C        -1.6538932476    0.0179768277   -0.0275112049
      9  H        -1.5673012745    1.0745775498   -0.3092485745
     10  C        -2.9887266574   -0.4789105635    0.1000052558
     11  H        -3.1239699799   -1.5330755042    0.3555916565
     12  C        -4.1034926081    0.3025573882   -0.0790102263
     13  H        -3.9547781321    1.3599412888   -0.3276480288
     14  C        -5.4745921799   -0.1332261164    0.0361084256
     15  C        -6.4813029355    0.7873909220   -0.1561988463
     16  H        -6.1747228992    1.8160431897   -0.3821056939
     17  C        -7.9035245352    0.5665511760   -0.0936730808
     18  H        -8.2554811311   -0.4492986511    0.1113208655
     19  C        -8.8286209154    1.5411143220   -0.2791656760
     20  H        -9.8994344744    1.3360311758   -0.2269774122
     21  H        -8.5334965149    2.5748994057   -0.4861679683
     22  C        -0.4206759686   -2.1108729179    0.5828780010
     23  H        -1.4176894197   -2.5629778138    0.6610045221
     24  H         0.0770532246   -2.2336178396    1.5610290611
     25  H         0.1593467112   -2.7079060190   -0.1439038947
     26  C         2.5480141991    2.4383298752    0.8053806885
     27  H         1.7683145867    1.9425807865    1.4041586271
     28  H         3.0218446006    3.2149329959    1.4302113145
     29  H         2.0314478011    2.9732365432   -0.0157790565
     30  C        -5.7355469896   -1.5797256285    0.3645460819
     31  H        -6.8053395862   -1.8132138305    0.4261397624
     32  H        -5.2806984998   -1.8538725877    1.3326024101
     33  H        -5.2920948650   -2.2466689381   -0.3959125836
     34  C         4.9518004623    2.0910525785    0.1042849717
     35  H         5.1380438591    2.8059077572    0.9269418387
     36  H         4.9403824102    2.7132404246   -0.8174104605
     37  C         6.0826143224    1.0709456473    0.0187967314
     38  H         7.0161001118    1.5554551668   -0.3142135208
     39  H         6.2880045235    0.6595144678    1.0236596284
     40  C         5.6813070624   -0.0465004627   -0.9346314223
     41  H         6.5069976410   -0.7670183347   -1.0799354682
     42  H         5.4668083916    0.3895852190   -1.9299025777
     43  C         4.4336512098   -0.8163333262   -0.4513705127
     44  C         3.9356818264   -1.6661873215   -1.6389611818
     45  H         3.1095491752   -2.3397051437   -1.3583870818
     46  H         3.5808333812   -1.0213632046   -2.4614472532
     47  H         4.7626570670   -2.2898271253   -2.0241024523
     48  C         4.8236080173   -1.7596428185    0.7075126740
     49  H         5.2327951728   -1.1997446388    1.5646396877
     50  H         3.9554922353   -2.3341552052    1.0724219590
     51  H         5.5859613372   -2.4850228945    0.3700282169
   Point Group: c1    Number of degrees of freedom:   147


   Energy is   -817.390750513

 Hessian Updated using BFGS Update

141 Hessian modes will be used to form the next step
  Hessian Eigenvalues:
     0.001300    0.002075    0.002724    0.003027    0.004142    0.005791
     0.006315    0.008896    0.011388    0.013666    0.013785    0.014282
     0.015020    0.015279    0.015751    0.016022    0.019506    0.020023
     0.020155    0.020505    0.020658    0.021120    0.021499    0.023698
     0.024019    0.024564    0.025142    0.027236    0.027295    0.027875
     0.030718    0.033367    0.042813    0.048018    0.048222    0.051634
     0.053295    0.053805    0.054738    0.055375    0.056571    0.058941
     0.067993    0.068978    0.069153    0.069472    0.071364    0.071530
     0.071550    0.078523    0.079046    0.083742    0.096492    0.099529
     0.121904    0.144897    0.154350    0.155554    0.157255    0.159131
     0.159829    0.159924    0.159969    0.159991    0.159996    0.159997
     0.159999    0.160000    0.160037    0.160337    0.160633    0.161058
     0.161875    0.162337    0.165825    0.189887    0.202078    0.217795
     0.219961    0.219986    0.220105    0.223291    0.228539    0.231278
     0.248302    0.249913    0.250499    0.253149    0.255172    0.260903
     0.264539    0.269240    0.277366    0.278155    0.289240    0.294309
     0.299141    0.304015    0.307460    0.323612    0.327263    0.328005
     0.328486    0.329385    0.329739    0.330145    0.330780    0.330953
     0.331066    0.331083    0.331291    0.331335    0.331582    0.332935
     0.333416    0.334922    0.335789    0.337189    0.338292    0.338507
     0.338646    0.338715    0.339369    0.340532    0.340593    0.341935
     0.342736    0.344031    0.345607    0.355500    0.372644    0.381111
     0.390861    0.401815    0.423627    0.477959    0.486416    0.497542
     0.512013    0.527533    0.562455

 Minimum Search - Taking Simple RFO Step
 Searching for Lamda that Minimizes Along All modes
 Value Taken    Lamda =   0.00000000
 Step Taken.  Stepsize is  0.003430

                             Maximum     Tolerance    Cnvgd?
         Gradient           0.000036      0.000300     YES
         Displacement       0.001751      0.001200      NO
         Energy change     -0.000000      0.000001     YES

 Final energy is   -817.390750513274     


 ******************************
 **  OPTIMIZATION CONVERGED  **
 ******************************

                       Coordinates (Angstroms)
     ATOM                X               Y               Z
      1  C         3.3278093309    0.1549184220    0.0197061014
      2  C         3.5840100688    1.4739341926    0.2913451814
      3  C         2.0222854207   -0.4802337064    0.1924027239
      4  H         2.0670209199   -1.5411033673    0.4605670450
      5  C         0.7766601913    0.0492912900   -0.0006998716
      6  H         0.6759817595    1.0821012056   -0.3421780826
      7  C        -0.4714639915   -0.6638212828    0.1758815106
      8  C        -1.6538932476    0.0179768277   -0.0275112049
      9  H        -1.5673012745    1.0745775498   -0.3092485745
     10  C        -2.9887266574   -0.4789105635    0.1000052558
     11  H        -3.1239699799   -1.5330755042    0.3555916565
     12  C        -4.1034926081    0.3025573882   -0.0790102263
     13  H        -3.9547781321    1.3599412888   -0.3276480288
     14  C        -5.4745921799   -0.1332261164    0.0361084256
     15  C        -6.4813029355    0.7873909220   -0.1561988463
     16  H        -6.1747228992    1.8160431897   -0.3821056939
     17  C        -7.9035245352    0.5665511760   -0.0936730808
     18  H        -8.2554811311   -0.4492986511    0.1113208655
     19  C        -8.8286209154    1.5411143220   -0.2791656760
     20  H        -9.8994344744    1.3360311758   -0.2269774122
     21  H        -8.5334965149    2.5748994057   -0.4861679683
     22  C        -0.4206759686   -2.1108729179    0.5828780010
     23  H        -1.4176894197   -2.5629778138    0.6610045221
     24  H         0.0770532246   -2.2336178396    1.5610290611
     25  H         0.1593467112   -2.7079060190   -0.1439038947
     26  C         2.5480141991    2.4383298752    0.8053806885
     27  H         1.7683145867    1.9425807865    1.4041586271
     28  H         3.0218446006    3.2149329959    1.4302113145
     29  H         2.0314478011    2.9732365432   -0.0157790565
     30  C        -5.7355469896   -1.5797256285    0.3645460819
     31  H        -6.8053395862   -1.8132138305    0.4261397624
     32  H        -5.2806984998   -1.8538725877    1.3326024101
     33  H        -5.2920948650   -2.2466689381   -0.3959125836
     34  C         4.9518004623    2.0910525785    0.1042849717
     35  H         5.1380438591    2.8059077572    0.9269418387
     36  H         4.9403824102    2.7132404246   -0.8174104605
     37  C         6.0826143224    1.0709456473    0.0187967314
     38  H         7.0161001118    1.5554551668   -0.3142135208
     39  H         6.2880045235    0.6595144678    1.0236596284
     40  C         5.6813070624   -0.0465004627   -0.9346314223
     41  H         6.5069976410   -0.7670183347   -1.0799354682
     42  H         5.4668083916    0.3895852190   -1.9299025777
     43  C         4.4336512098   -0.8163333262   -0.4513705127
     44  C         3.9356818264   -1.6661873215   -1.6389611818
     45  H         3.1095491752   -2.3397051437   -1.3583870818
     46  H         3.5808333812   -1.0213632046   -2.4614472532
     47  H         4.7626570670   -2.2898271253   -2.0241024523
     48  C         4.8236080173   -1.7596428185    0.7075126740
     49  H         5.2327951728   -1.1997446388    1.5646396877
     50  H         3.9554922353   -2.3341552052    1.0724219590
     51  H         5.5859613372   -2.4850228945    0.3700282169

Z-matrix Print:
$molecule
0 1
C 
C  1 1.370850
C  1 1.462065 2 124.157592
H  3 1.095152 1 114.410427 2 -148.702583 0
C  3 1.367212 1 128.945979 2 34.977217 0
H  5 1.092447 3 119.621715 1 0.797314 0
C  5 1.448283 3 125.256198 1 178.988523 0
C  7 1.379984 5 118.501666 3 178.496237 0
H  8 1.096941 7 116.494333 5 -0.312162 0
C  8 1.430013 7 127.951737 5 -179.448869 0
H  10 1.093105 8 118.127243 7 -2.310113 0
C  10 1.373114 8 123.259950 7 177.509407 0
H  12 1.096356 10 117.926180 8 -0.269538 0
C  12 1.443286 10 126.086743 8 -179.907275 0
C  14 1.377674 12 118.769263 10 179.034092 0
H  15 1.096882 14 116.819511 12 -0.435825 0
C  15 1.440623 14 127.799684 12 179.739874 0
H  17 1.094462 15 117.897106 14 -1.250941 0
C  17 1.356460 15 123.863114 14 179.032714 0
H  19 1.091524 17 121.838411 15 179.834208 0
H  19 1.094833 17 121.360119 15 -0.347867 0
C  7 1.504056 5 118.529770 3 -1.039988 0
H  22 1.097515 7 112.638156 5 -178.369093 0
H  22 1.104346 7 111.212700 5 60.885578 0
H  22 1.105028 7 111.073213 5 -57.685479 0
C  2 1.505848 1 123.730082 3 0.058456 0
H  26 1.101015 2 112.611741 1 29.023399 0
H  26 1.103649 2 110.398157 1 150.128021 0
H  26 1.107822 2 112.148027 1 -91.578708 0
C  14 1.506097 12 118.163150 10 -0.870945 0
H  30 1.096707 14 112.689407 12 -179.763603 0
H  30 1.104163 14 110.994346 12 59.678019 0
H  30 1.104428 14 111.116209 12 -58.960128 0
C  2 1.512176 1 122.493471 3 179.736647 0
H  34 1.105653 2 108.915741 1 -141.780107 0
H  34 1.112102 2 108.757043 1 104.460052 0
C  34 1.525341 2 113.864344 1 -18.051357 0
H  37 1.103196 34 110.518324 2 168.786494 0
H  37 1.105084 34 109.622035 2 -74.363866 0
C  37 1.522747 34 109.298139 2 46.502377 0
H  40 1.105452 37 111.331122 34 175.789501 0
H  40 1.107585 37 108.949814 34 58.693143 0
C  40 1.543641 37 112.517395 34 -61.964859 0
C  43 1.542918 40 107.132830 37 166.498403 0
H  44 1.102199 43 112.492000 40 173.673852 0
H  44 1.103720 43 110.826797 40 -65.560445 0
H  44 1.105056 43 109.729754 40 53.744020 0
C  43 1.544315 40 109.600743 37 -75.585881 0
H  48 1.102537 43 111.524948 40 60.395139 0
H  48 1.103108 43 111.570523 40 -179.473065 0
H  48 1.105104 43 110.240854 40 -60.003797 0
$end

 
 --------------------------------------------------------------
 
                    Orbital Energies (a.u.)
 --------------------------------------------------------------
 
 Alpha MOs
 -- Occupied --
-10.207 -10.206 -10.205 -10.198 -10.195 -10.192 -10.191 -10.190
-10.190 -10.189 -10.188 -10.187 -10.185 -10.183 -10.182 -10.182
-10.181 -10.179 -10.176 -10.173 -10.170  -0.832  -0.815  -0.801
 -0.766  -0.764  -0.750  -0.726  -0.699  -0.667  -0.664  -0.656
 -0.654  -0.648  -0.609  -0.578  -0.553  -0.539  -0.517  -0.508
 -0.498  -0.480  -0.462  -0.452  -0.446  -0.432  -0.425  -0.416
 -0.408  -0.400  -0.397  -0.396  -0.393  -0.383  -0.381  -0.376
 -0.373  -0.368  -0.361  -0.356  -0.350  -0.345  -0.342  -0.335
 -0.328  -0.325  -0.320  -0.315  -0.313  -0.312  -0.298  -0.294
 -0.288  -0.276  -0.269  -0.236  -0.206  -0.167
 -- Virtual --
 -0.092  -0.040   0.002   0.030   0.037   0.041   0.050   0.055
  0.059   0.068   0.069   0.072   0.075   0.077   0.084   0.091
  0.094   0.098   0.110   0.113   0.119   0.125   0.131   0.135
  0.136   0.138   0.143   0.150   0.154   0.158   0.174   0.177
  0.183   0.185   0.191   0.196   0.198   0.207   0.215   0.221
  0.225   0.227   0.243   0.253   0.257   0.260   0.279   0.304
  0.308   0.325   0.333   0.353   0.360   0.367   0.374   0.379
  0.389   0.396   0.420   0.429   0.432   0.440   0.447   0.453
  0.455   0.458   0.464   0.469   0.471   0.476   0.482   0.496
  0.502   0.511   0.513   0.514   0.518   0.521   0.531   0.544
  0.558   0.575   0.578   0.589   0.597   0.610   0.617   0.618
  0.622   0.630   0.635   0.638   0.640   0.647   0.655   0.657
  0.660   0.664   0.664   0.668   0.674   0.677   0.684   0.687
  0.689   0.694   0.698   0.701   0.702   0.707   0.710   0.712
  0.715   0.719   0.720   0.721   0.727   0.729   0.734   0.737
  0.739   0.746   0.747   0.749   0.760   0.761   0.769   0.773
  0.779   0.786   0.793   0.800   0.804   0.813   0.830   0.836
  0.842   0.853   0.871   0.885   0.888   0.900   0.912   0.919
  0.927   0.956   0.981   0.994   1.013   1.041   1.054   1.078
  1.108   1.123   1.144   1.156   1.168   1.183   1.193   1.215
  1.231   1.262   1.267   1.288   1.312   1.336   1.345   1.360
  1.386   1.437   1.506
 --------------------------------------------------------------
 
          Ground-State Mulliken Net Atomic Charges

     Atom                 Charge (a.u.)
  ----------------------------------------
      1 C                     0.080503
      2 C                    -0.147957
      3 C                    -0.106742
      4 H                     0.086224
      5 C                    -0.112539
      6 H                     0.070804
      7 C                    -0.052501
      8 C                    -0.125630
      9 H                     0.066554
     10 C                    -0.058769
     11 H                     0.085263
     12 C                    -0.122160
     13 H                     0.068260
     14 C                    -0.045925
     15 C                    -0.132552
     16 H                     0.068215
     17 C                    -0.067963
     18 H                     0.084231
     19 C                    -0.216835
     20 H                     0.105471
     21 H                     0.103762
     22 C                    -0.245627
     23 H                     0.118153
     24 H                     0.126712
     25 H                     0.125533
     26 C                    -0.263001
     27 H                     0.136653
     28 H                     0.101437
     29 H                     0.128915
     30 C                    -0.249785
     31 H                     0.119747
     32 H                     0.126880
     33 H                     0.126204
     34 C                    -0.162909
     35 H                     0.097356
     36 H                     0.108619
     37 C                    -0.148623
     38 H                     0.093994
     39 H                     0.100946
     40 C                    -0.119600
     41 H                     0.089194
     42 H                     0.092020
     43 C                    -0.372319
     44 C                    -0.185308
     45 H                     0.103074
     46 H                     0.106902
     47 H                     0.101206
     48 C                    -0.211299
     49 H                     0.112254
     50 H                     0.110090
     51 H                     0.102871
  ----------------------------------------
  Sum of atomic charges =    -0.000000

 -----------------------------------------------------------------
                    Cartesian Multipole Moments
 -----------------------------------------------------------------
    Charge (ESU x 10^10)
                -0.0000
    Dipole Moment (Debye)
         X       0.9623      Y      -0.4285      Z       0.2262
       Tot       1.0774
    Quadrupole Moments (Debye-Ang)
        XX    -128.6525     XY       4.7082     YY    -125.8823
        XZ      -1.1379     YZ      -2.3986     ZZ    -138.6268
    Octopole Moments (Debye-Ang^2)
       XXX      10.4833    XXY     -15.3315    XYY      -7.1839
       YYY       2.2197    XXZ       4.2005    XYZ      10.1261
       YYZ       0.8290    XZZ      22.4279    YZZ      -2.0567
       ZZZ       6.5008
    Hexadecapole Moments (Debye-Ang^3)
      XXXX  -17555.3422   XXXY     223.9734   XXYY   -3163.5501
      XYYY      53.1832   YYYY   -1646.7435   XXXZ      43.5371
      XXYZ     -62.5322   XYYZ      48.1028   YYYZ     -35.5786
      XXZZ   -3272.3281   XYZZ      46.7738   YYZZ    -358.8048
      XZZZ      91.7798   YZZZ     -35.5142   ZZZZ    -484.5202
 -----------------------------------------------------------------
Archival summary:
1\1\cub-0-12.local\OPT\ProcedureUnspecified\BasisUnspecified\2130\c295_lal\TueNov2712:43:242018TueNov2712:43:242018\0\\#,OPT,ProcedureUnspecified,BasisUnspecified,\\0,1\C\C,1,1.37085\C,1,1.46207,2,124.158\H,3,1.09515,1,114.41,2,-148.703,0\C,3,1.36721,1,128.946,2,34.9772,0\H,5,1.09245,3,119.622,1,0.797314,0\C,5,1.44828,3,125.256,1,178.989,0\C,7,1.37998,5,118.502,3,178.496,0\H,8,1.09694,7,116.494,5,-0.312162,0\C,8,1.43001,7,127.952,5,-179.449,0\H,10,1.09311,8,118.127,7,-2.31011,0\C,10,1.37311,8,123.26,7,177.509,0\H,12,1.09636,10,117.926,8,-0.269538,0\C,12,1.44329,10,126.087,8,-179.907,0\C,14,1.37767,12,118.769,10,179.034,0\H,15,1.09688,14,116.82,12,-0.435825,0\C,15,1.44062,14,127.8,12,179.74,0\H,17,1.09446,15,117.897,14,-1.25094,0\C,17,1.35646,15,123.863,14,179.033,0\H,19,1.09152,17,121.838,15,179.834,0\H,19,1.09483,17,121.36,15,-0.347867,0\C,7,1.50406,5,118.53,3,-1.03999,0\H,22,1.09751,7,112.638,5,-178.369,0\H,22,1.10435,7,111.213,5,60.8856,0\H,22,1.10503,7,111.073,5,-57.6855,0\C,2,1.50585,1,123.73,3,0.0584564,0\H,26,1.10101,2,112.612,1,29.0234,0\H,26,1.10365,2,110.398,1,150.128,0\H,26,1.10782,2,112.148,1,-91.5787,0\C,14,1.5061,12,118.163,10,-0.870945,0\H,30,1.09671,14,112.689,12,-179.764,0\H,30,1.10416,14,110.994,12,59.678,0\H,30,1.10443,14,111.116,12,-58.9601,0\C,2,1.51218,1,122.493,3,179.737,0\H,34,1.10565,2,108.916,1,-141.78,0\H,34,1.1121,2,108.757,1,104.46,0\C,34,1.52534,2,113.864,1,-18.0514,0\H,37,1.1032,34,110.518,2,168.786,0\H,37,1.10508,34,109.622,2,-74.3639,0\C,37,1.52275,34,109.298,2,46.5024,0\H,40,1.10545,37,111.331,34,175.79,0\H,40,1.10759,37,108.95,34,58.6931,0\C,40,1.54364,37,112.517,34,-61.9649,0\C,43,1.54292,40,107.133,37,166.498,0\H,44,1.1022,43,112.492,40,173.674,0\H,44,1.10372,43,110.827,40,-65.5604,0\H,44,1.10506,43,109.73,40,53.744,0\C,43,1.54432,40,109.601,37,-75.5859,0\H,48,1.10254,43,111.525,40,60.3951,0\H,48,1.10311,43,111.571,40,-179.473,0\H,48,1.1051,43,110.241,40,-60.0038,0\\\@

 Total job time:  18219.51s(wall), 206595.84s(cpu) 
 Tue Nov 27 12:43:24 2018

        *************************************************************
        *                                                           *
        *  Thank you very much for using Q-Chem.  Have a nice day.  *
        *                                                           *
        *************************************************************


