
Running Job 1 of 1 car_1_2_opt_vdz_mgga.in
qchem car_1_2_opt_vdz_mgga.in_28396.0 /scr/c295_lal/156745/qchem28396/ 1
/usr/software/qchem_511/exe/qcprog.exe_s car_1_2_opt_vdz_mgga.in_28396.0 /scr/c295_lal/156745/qchem28396/
Check license passed

                  Welcome to Q-Chem
     A Quantum Leap Into The Future Of Chemistry


 Q-Chem 5.1, Q-Chem, Inc., Pleasanton, CA (2018)

 Yihan Shao,  Zhengting Gan,  E. Epifanovsky,  A. T. B. Gilbert,  M. Wormit,  
 J. Kussmann,  A. W. Lange,  A. Behn,  Jia Deng,  Xintian Feng,  D. Ghosh,  
 M. Goldey,  P. R. Horn,  L. D. Jacobson,  I. Kaliman,  T. Kus,  A. Landau,  
 Jie Liu,  E. I. Proynov,  R. M. Richard,  R. P. Steele,  E. J. Sundstrom,  
 H. L. Woodcock III,  P. M. Zimmerman,  D. Zuev,  B. Albrecht,  E. Alguire,  
 S. A. Baeppler,  D. Barton,  Z. Benda,  Y. A. Bernard,  E. J. Berquist,  
 K. B. Bravaya,  H. Burton,  D. Casanova,  Chun-Min Chang,  Yunqing Chen,  
 A. Chien,  K. D. Closser,  M. P. Coons,  S. Coriani,  S. Dasgupta,  
 A. L. Dempwolff,  M. Diedenhofen,  Hainam Do,  R. G. Edgar,  Po-Tung Fang,  
 S. Faraji,  S. Fatehi,  Qingguo Feng,  K. D. Fenk,  J. Fosso-Tande,  
 Qinghui Ge,  A. Ghysels,  G. Gidofalvi,  J. Gomes,  J. Gonthier,  A. Gunina,  
 D. Hait,  M. W. D. Hanson-Heine,  P. H. P. Harbach,  A. W. Hauser,  
 J. E. Herr,  E. G. Hohenstein,  Z. C. Holden,  Kerwin Hui,  B. C. Huynh,  
 T.-C. Jagau,  Hyunjun Ji,  B. Kaduk,  K. Khistyaev,  Jaehoon Kim,  
 P. Klunzinger,  K. Koh,  D. Kosenkov,  L. Koulias,  T. Kowalczyk,  
 C. M. Krauter,  A. Kunitsa,  Ka Un Lao,  A. Laurent,  K. V. Lawler,  
 Joonho Lee,  D. Lefrancois,  S. Lehtola,  D. S. Levine,  Yi-Pei Li,  
 You-Sheng Lin,  Fenglai Liu,  E. Livshits,  A. Luenser,  P. Manohar,  
 E. Mansoor,  S. F. Manzer,  Shan-Ping Mao,  Yuezhi Mao,  N. Mardirossian,  
 A. V. Marenich,  T. Markovich,  L. A. Martinez-Martinez,  S. A. Maurer,  
 N. J. Mayhall,  S. C. McKenzie,  J.-M. Mewes,  A. F. Morrison,  
 J. W. Mullinax,  K. Nanda,  T. S. Nguyen-Beck,  R. Olivares-Amaya,  
 J. A. Parkhill,  T. M. Perrine,  F. Plasser,  P. Pokhilko,  S. Prager,  
 A. Prociuk,  E. Ramos,  D. R. Rehn,  F. Rob,  M. Schneider,  N. Sergueev,  
 S. M. Sharada,  S. Sharma,  D. W. Small,  T. Stauch,  T. Stein,  
 Yu-Chuan Su,  A. J. W. Thom,  A. Tkatchenko,  T. Tsuchimochi,  N. M. Tubman,  
 L. Vogt,  M. L. Vidal,  O. Vydrov,  M. A. Watson,  J. Wenzel,  
 M. de Wergifosse,  T. A. Wesolowski,  A. White,  J. Witte,  A. Yamada,  
 Jun Yang,  K. Yao,  S. Yeganeh,  S. R. Yost,  Zhi-Qiang You,  A. Zech,  
 Igor Ying Zhang,  Xing Zhang,  Yan Zhao,  Ying Zhu,  B. R. Brooks,  
 G. K. L. Chan,  C. J. Cramer,  M. S. Gordon,  W. J. Hehre,  A. Klamt,  
 M. W. Schmidt,  C. D. Sherrill,  D. G. Truhlar,  A. Aspuru-Guzik,  R. Baer,  
 A. T. Bell,  N. A. Besley,  Jeng-Da Chai,  A. E. DePrince, III,  
 R. A. DiStasio Jr.,  A. Dreuw,  B. D. Dunietz,  T. R. Furlani,  
 Chao-Ping Hsu,  Yousung Jung,  Jing Kong,  D. S. Lambrecht,  WanZhen Liang,  
 C. Ochsenfeld,  V. A. Rassolov,  L. V. Slipchenko,  J. E. Subotnik,  
 T. Van Voorhis,  J. M. Herbert,  A. I. Krylov,  P. M. W. Gill,  M. Head-Gordon

 Contributors to earlier versions of Q-Chem not listed above: 
 R. D. Adamson,  B. Austin,  J. Baker,  G. J. O. Beran,  K. Brandhorst,  
 S. T. Brown,  E. F. C. Byrd,  A. K. Chakraborty,  C.-L. Cheng,  
 Siu Hung Chien,  D. M. Chipman,  D. L. Crittenden,  H. Dachsel,  
 R. J. Doerksen,  A. D. Dutoi,  L. Fusti-Molnar,  W. A. Goddard III,  
 A. Golubeva-Zadorozhnaya,  S. R. Gwaltney,  G. Hawkins,  A. Heyden,  
 S. Hirata,  G. Kedziora,  F. J. Keil,  C. Kelley,  Jihan Kim,  R. A. King,  
 R. Z. Khaliullin,  P. P. Korambath,  W. Kurlancheek,  A. M. Lee,  M. S. Lee,  
 S. V. Levchenko,  Ching Yeh Lin,  D. Liotard,  R. C. Lochan,  I. Lotan,  
 P. E. Maslen,  N. Nair,  D. P. O'Neill,  D. Neuhauser,  E. Neuscamman,  
 C. M. Oana,  R. Olson,  B. Peters,  R. Peverati,  P. A. Pieniazek,  
 Y. M. Rhee,  J. Ritchie,  M. A. Rohrdanz,  E. Rosta,  N. J. Russ,  
 H. F. Schaefer III,  N. E. Schultz,  N. Shenvi,  A. C. Simmonett,  A. Sodt,  
 D. Stuck,  K. S. Thanthiriwatte,  V. Vanovschi,  Tao Wang,  A. Warshel,  
 C. F. Williams,  Q. Wu,  X. Xu,  W. Zhang

 Please cite Q-Chem as follows:
 Y. Shao et al., Mol. Phys. 113, 184-215 (2015)
 DOI: 10.1080/00268976.2014.952696

 Q-Chem 5.1.1 for Intel X86 EM64T Linux

 Parts of Q-Chem use Armadillo 8.300.2 (Tropical Shenanigans).
 http://arma.sourceforge.net/

 Q-Chem begins on Mon Nov 26 15:14:15 2018  

Host: cub-0-26.local
0

     Scratch files written to /scr/c295_lal/156745/qchem28396//
 Aug318 |scratch|qcdevops|jenkins|workspace|build_RNUM -1
Processing $rem in /usr/software/qchem_511/config/preferences.
 MEM_TOTAL  2000 
Input Ideriv = 2
Curr. Ideriv = -1
Max.  Ideriv = 2
Input Ideriv = 1
Curr. Ideriv = 2
Max.  Ideriv = 1

Checking the input file for inconsistencies... 	...done.

--------------------------------------------------------------
User input:
--------------------------------------------------------------
$molecule
0 1
C
C  1 1.375759
C  1 1.482187 2 123.722930
H  3 1.096979 1 114.961589 2 -138.769095 0
C  3 1.370472 1 127.333987 2 45.907661 0
H  5 1.095888 3 118.708006 1 0.436774 0
C  5 1.466331 3 126.164811 1 177.943075 0
C  7 1.381933 5 118.396709 3 -175.996808 0
H  8 1.098441 7 116.839966 5 -0.481295 0
C  8 1.453427 7 128.161393 5 179.049259 0
H  10 1.095936 8 117.920881 7 0.362953 0
C  10 1.362140 8 123.949197 7 -179.356451 0
H  12 1.092239 10 121.866526 8 179.822938 0
H  12 1.094756 10 121.652236 8 -0.018759 0
C  7 1.524517 5 118.353126 3 3.512182 0
H  15 1.098559 7 112.607764 5 176.474260 0
H  15 1.104848 7 110.774455 5 55.749706 0
H  15 1.105965 7 111.046791 5 -62.805188 0
C  2 1.525449 1 124.141774 3 1.626979 0
H  19 1.099018 2 112.759660 1 15.644061 0
H  19 1.106217 2 110.030440 1 136.679250 0
H  19 1.108390 2 111.633449 1 -105.631820 0
C  2 1.533210 1 122.752392 3 -178.843180 0
H  23 1.107300 2 108.965496 1 -140.645249 0
H  23 1.112223 2 108.501695 1 105.314771 0
C  23 1.546639 2 114.301356 1 -17.036891 0
H  26 1.105268 23 110.123139 2 166.224874 0
H  26 1.105694 23 109.657634 2 -76.870245 0
C  26 1.543465 23 109.744617 2 44.159956 0
H  29 1.106119 26 110.904580 23 177.252488 0
H  29 1.107860 26 108.759253 23 60.237515 0
C  29 1.563964 26 112.737110 23 -60.473699 0
C  32 1.565287 29 107.393362 26 167.248490 0
H  33 1.101901 32 112.057014 29 173.991643 0
H  33 1.103330 32 110.757636 29 -65.582404 0
H  33 1.105151 32 110.008096 29 53.965396 0
C  32 1.568428 29 109.839246 26 -74.799071 0
H  37 1.101961 32 111.479015 29 60.358524 0
H  37 1.103345 32 111.422331 29 -179.399482 0
H  37 1.105078 32 110.244407 29 -60.011788 0
$end

$rem
BASIS = VDZ
METHOD  = B97M-rV
JOBTYPE = OPT
$end
--------------------------------------------------------------
 ----------------------------------------------------------------
             Standard Nuclear Orientation (Angstroms)
    I     Atom           X                Y                Z
 ----------------------------------------------------------------
    1      C       1.2558398991     0.1061050091     0.1334862918
    2      C       1.6529516081     1.4185765970     0.2449916623
    3      C      -0.1206931660    -0.3641237096     0.4179506586
    4      H      -0.1819854801    -1.3134650292     0.9641715275
    5      C      -1.2959582321     0.2042658148     0.0009627984
    6      H      -1.2532537308     1.1060171023    -0.6203193032
    7      C      -2.6451096135    -0.3070321213     0.2626717437
    8      C      -3.7190076666     0.3503538142    -0.3068241034
    9      H      -3.4916077430     1.2316603078    -0.9217718812
   10      C      -5.1306903271     0.0196077757    -0.2057836731
   11      H      -5.4116543899    -0.8526469024     0.3953042473
   12      C      -6.1228584917     0.7247964294    -0.8171237383
   13      H      -7.1738957713     0.4438753795    -0.7202215512
   14      H      -5.9071603251     1.6028367359    -1.4343839919
   15      C      -2.7926713839    -1.5446414668     1.1405673611
   16      H      -3.8429267729    -1.8087786434     1.3250315748
   17      H      -2.3073648218    -1.3897853589     2.1209684167
   18      H      -2.3042405283    -2.4215411989     0.6761960223
   19      C       0.7430428023     2.5519702839     0.7081108342
   20      H      -0.1699077978     2.1897821276     1.2012452027
   21      H       1.2842180697     3.2069287219     1.4165420768
   22      H       0.4333983115     3.1987186616    -0.1370904538
   23      C       3.0769743816     1.8847917448    -0.0798705863
   24      H       3.3844023577     2.6466059055     0.6625851457
   25      H       3.0596413598     2.4186592499    -1.0554345540
   26      C       4.1221778290     0.7461709920    -0.1363040074
   27      H       5.0534551951     1.1079537164    -0.6090122467
   28      H       4.3905742659     0.4364076259     0.8906182055
   29      C       3.5449710240    -0.4532278899    -0.9176866490
   30      H       4.2951027090    -1.2606255547    -1.0120831961
   31      H       3.3011066997    -0.1238136258    -1.9469437663
   32      C       2.2539164474    -1.0396224948    -0.2579118079
   33      C       1.5958758361    -2.0078595663    -1.2969608536
   34      H       0.7341920691    -2.5473247007    -0.8719146581
   35      H       1.2423524873    -1.4507719997    -2.1812751496
   36      H       2.3335719508    -2.7583850936    -1.6344139732
   37      C       2.6366003837    -1.8627082142     1.0211696182
   38      H       3.1448091381    -1.2329552720     1.7691356196
   39      H       1.7441404195    -2.2979925314     1.5022236324
   40      H       3.3108643457    -2.6958976109     0.7521697579
 ----------------------------------------------------------------
 Molecular Point Group                 C1    NOp =  1
 Largest Abelian Subgroup              C1    NOp =  1
 Nuclear Repulsion Energy =  1063.7508600930 hartrees
 There are       60 alpha and       60 beta electrons
 Requested basis set is VDZ
 There are 128 shells and 192 basis functions

 Total QAlloc Memory Limit   2000 MB
 Mega-Array Size       188 MB
 MEM_STATIC part       192 MB
 A cutoff of  1.0D-11 yielded   6562 shell pairs
 There are     15116 function pairs
 
 -------------------------------------------------------
 OpenMP Integral Computing Module                       
 Release: version 1.0, May 2013, Q-Chem Inc. Pittsburgh 
 -------------------------------------------------------
 Integral Job Info:
 Integral job number is                      11
 Integral operator is                         1
 short-range coefficients                     0
 long-range coefficients              100000000
 Omega coefficients                           0
 if combine SR and LR in K                    0
 Integral screening is                        0
 Integral computing path is                   2
 max size of driver memory is            800000
 size of driver memory is                 45569
 size of scratch memory is              1477076
 max col of scratch BK array                289
 max len of scratch array in speh3           22
 max len of scratch index in speh4            8
 max int batch size is                      520
 min int batch size is                       52
 fixed nKL is                                52
 max L of basis functions is                  1
 order of int derivative is                   0
 number of shells is                        128
 number of basis is                         192
 number of cartesian basis is               192
 number of contracted shell pairs          6562
 number of primitive shell pairs          18207
 maxK2 (contraction) of shell pair           25
 max number of K2 of shell pair               1
 max number of CS2 of shell pair           1662
 max number of PS2 of shell pair           4075
 mem total for path MDJ                  568442
 -------------------------------------------------------
 Smallest overlap matrix eigenvalue = 1.04E-03

 Scale SEOQF with 1.000000e-02/1.000000e-01/1.000000e-01

 Standard Electronic Orientation quadrupole field applied
 Nucleus-field energy     =     0.0000000132 hartrees
 Guess from superposition of atomic densities
 Warning:  Energy on first SCF cycle will be non-variational
 SAD guess density has 120.000000 electrons

 -----------------------------------------------------------------------
  General SCF calculation program by
  Eric Jon Sundstrom, Paul Horn, Yuezhi Mao, Dmitri Zuev, Alec White,
  David Stuck, Shaama M.S., Shane Yost, Joonho Lee, David Small,
  Daniel Levine, Susi Lehtola, Hugh Burton, Evgeny Epifanovsky
 -----------------------------------------------------------------------
 Exchange:  B97M-V      Correlation:  B97M-V
 Using SG-2 standard quadrature grid
 Nonlocal Correlation:  rVV10 with C = 0.0100 and b = 6.00 and scale = 1.00000
 Grid used for NLC:  SG-1 standard quadrature
 using 8 threads for integral computing
 -------------------------------------------------------
 OpenMP Integral computing Module                
 Release: version 1.0, May 2013, Q-Chem Inc. Pittsburgh 
 -------------------------------------------------------
 -------------------------------------------------------
 OpenMP BLAS3 based DFT computing Module                
 Release: version 1.0, May 2013, Q-Chem Inc. Pittsburgh 
 -------------------------------------------------------
 -------------------------------------------------------
 OpenMP BLAS3 based DFT computing Module                
 Release: version 1.0, May 2013, Q-Chem Inc. Pittsburgh 
 -------------------------------------------------------
 -------------------------------------------------------
 OpenMP BLAS3 based DFT computing Module                
 Release: version 1.0, May 2013, Q-Chem Inc. Pittsburgh 
 -------------------------------------------------------
 Nonlocal correlation = 0.421212346405
 A restricted SCF calculation will be
 performed using DIIS
 SCF converges when DIIS error is below 1.0e-08
 ---------------------------------------
  Cycle       Energy         DIIS error
 ---------------------------------------
 Nonlocal correlation = 4.468107148489e-01
    1    -625.8035538486      6.71e-02  
 Nonlocal correlation = 4.359622178471e-01
    2    -623.1256576262      7.63e-03  
 Nonlocal correlation = 4.403031045614e-01
    3    -623.0033450184      9.01e-03  
 Nonlocal correlation = 4.405237222993e-01
    4    -623.4486687391      9.75e-04  
 Nonlocal correlation = 4.405150640261e-01
    5    -623.4519430110      6.16e-04  
 Nonlocal correlation = 4.405166001808e-01
    6    -623.4536971523      2.58e-04  
 Nonlocal correlation = 4.405087441341e-01
    7    -623.4540566283      6.38e-05  
 Nonlocal correlation = 4.405075544900e-01
    8    -623.4540760064      3.36e-05  
 Nonlocal correlation = 4.405076510689e-01
    9    -623.4540824767      6.68e-06  
 Nonlocal correlation = 4.405079535817e-01
   10    -623.4540826905      2.71e-06  
 Nonlocal correlation = 4.405080259502e-01
   11    -623.4540827298      8.00e-07  
 Nonlocal correlation = 4.405080428075e-01
   12    -623.4540827330      1.96e-07  
 Nonlocal correlation = 4.405080467556e-01
   13    -623.4540827331      1.21e-07  
 Nonlocal correlation = 4.405080472153e-01
   14    -623.4540827332      1.62e-08  
   15    -623.4540827332      5.62e-09  Convergence criterion met
 ---------------------------------------
 SCF time:   CPU 7535.31s  wall 944.00s 
 SCF   energy in the final basis set =     -623.4540827332
 Total energy in the final basis set =     -623.4540827332
 
 --------------------------------------------------------------
 
                    Orbital Energies (a.u.)
 --------------------------------------------------------------
 
 Alpha MOs
 -- Occupied --
-10.214 -10.210 -10.201 -10.197 -10.195 -10.192 -10.191 -10.191
-10.188 -10.184 -10.184 -10.183 -10.182 -10.176 -10.175 -10.171
 -0.822  -0.801  -0.760  -0.756  -0.735  -0.699  -0.663  -0.653
 -0.652  -0.645  -0.596  -0.563  -0.542  -0.520  -0.500  -0.475
 -0.455  -0.439  -0.434  -0.419  -0.414  -0.399  -0.395  -0.392
 -0.386  -0.376  -0.374  -0.369  -0.366  -0.359  -0.346  -0.344
 -0.335  -0.327  -0.323  -0.318  -0.313  -0.303  -0.294  -0.288
 -0.275  -0.263  -0.220  -0.180
 -- Virtual --
 -0.076  -0.011   0.028   0.034   0.042   0.057   0.062   0.066
  0.074   0.078   0.081   0.092   0.094   0.098   0.108   0.117
  0.123   0.131   0.135   0.138   0.144   0.149   0.155   0.165
  0.169   0.173   0.180   0.182   0.193   0.200   0.207   0.212
  0.218   0.231   0.243   0.251   0.256   0.294   0.306   0.341
  0.342   0.358   0.372   0.374   0.400   0.416   0.429   0.435
  0.447   0.456   0.459   0.465   0.471   0.476   0.485   0.497
  0.508   0.516   0.520   0.528   0.538   0.556   0.560   0.586
  0.592   0.602   0.604   0.612   0.617   0.627   0.634   0.638
  0.642   0.650   0.661   0.664   0.665   0.673   0.677   0.686
  0.687   0.691   0.696   0.700   0.702   0.705   0.709   0.714
  0.718   0.723   0.723   0.727   0.732   0.735   0.742   0.746
  0.757   0.762   0.768   0.773   0.783   0.785   0.796   0.800
  0.822   0.829   0.850   0.872   0.880   0.885   0.903   0.922
  0.931   0.990   0.999   1.023   1.044   1.076   1.093   1.114
  1.133   1.162   1.176   1.187   1.201   1.249   1.267   1.314
  1.321   1.357   1.377   1.495
 --------------------------------------------------------------
 
          Ground-State Mulliken Net Atomic Charges

     Atom                 Charge (a.u.)
  ----------------------------------------
      1 C                     0.050985
      2 C                    -0.129739
      3 C                    -0.103679
      4 H                     0.088758
      5 C                    -0.105913
      6 H                     0.074596
      7 C                    -0.054002
      8 C                    -0.137980
      9 H                     0.068394
     10 C                    -0.067721
     11 H                     0.083697
     12 C                    -0.217949
     13 H                     0.106030
     14 H                     0.103208
     15 C                    -0.253538
     16 H                     0.121153
     17 H                     0.126037
     18 H                     0.127344
     19 C                    -0.264978
     20 H                     0.136178
     21 H                     0.106242
     22 H                     0.120833
     23 C                    -0.169401
     24 H                     0.098185
     25 H                     0.108923
     26 C                    -0.157845
     27 H                     0.096161
     28 H                     0.102260
     29 C                    -0.123691
     30 H                     0.090886
     31 H                     0.094331
     32 C                    -0.349723
     33 C                    -0.191495
     34 H                     0.104422
     35 H                     0.107706
     36 H                     0.102475
     37 C                    -0.218450
     38 H                     0.112462
     39 H                     0.110545
     40 H                     0.104294
  ----------------------------------------
  Sum of atomic charges =    -0.000000

 -----------------------------------------------------------------
                    Cartesian Multipole Moments
 -----------------------------------------------------------------
    Charge (ESU x 10^10)
                -0.0000
    Dipole Moment (Debye)
         X       0.7229      Y      -0.1200      Z       0.2197
       Tot       0.7650
    Quadrupole Moments (Debye-Ang)
        XX     -99.8766     XY       2.1763     YY     -99.1549
        XZ      -1.1418     YZ      -3.2084     ZZ    -104.1313
    Octopole Moments (Debye-Ang^2)
       XXX      -3.3716    XXY      -5.5754    XYY       2.6269
       YYY       2.1991    XXZ      -0.2836    XYZ      12.1533
       YYZ      -0.3378    XZZ       5.8425    YZZ       2.0997
       ZZZ       1.8914
    Hexadecapole Moments (Debye-Ang^3)
      XXXX   -5999.4435   XXXY      47.5248   XXYY   -1235.5516
      XYYY       9.6868   YYYY   -1293.6487   XXXZ      -1.7788
      XXYZ     -52.5466   XYYZ       5.3580   YYYZ      -4.7801
      XXZZ   -1143.5611   XYZZ       0.1492   YYZZ    -296.3548
      XZZZ     -11.9819   YZZZ      -6.7975   ZZZZ    -490.4432
 -----------------------------------------------------------------
 Calculating analytic gradient of the SCF energy
 Gradient of SCF Energy
            1           2           3           4           5           6
    1  -0.0021938  -0.0014008  -0.0012289   0.0001791   0.0000458  -0.0003486
    2   0.0021564  -0.0015001  -0.0046447   0.0005892   0.0050656  -0.0001209
    3   0.0013985  -0.0004811   0.0034345  -0.0000804  -0.0030720  -0.0002664
            7           8           9          10          11          12
    1   0.0004245   0.0000308  -0.0001954  -0.0014549  -0.0004311  -0.0054905
    2   0.0018527   0.0045195   0.0004465  -0.0042129  -0.0004308   0.0041206
    3  -0.0011064  -0.0030629  -0.0004557   0.0027532   0.0001298  -0.0032593
           13          14          15          16          17          18
    1  -0.0004544  -0.0008611  -0.0017416  -0.0006079   0.0002955  -0.0000089
    2   0.0002617  -0.0003156  -0.0084072  -0.0006657   0.0000217  -0.0006886
    3  -0.0004153  -0.0000495   0.0058706   0.0005268   0.0007891  -0.0001588
           19          20          21          22          23          24
    1  -0.0057731  -0.0000363  -0.0000812  -0.0002472   0.0029339   0.0006349
    2   0.0078950   0.0001960   0.0006653   0.0008227   0.0100930   0.0007193
    3   0.0033072   0.0002037   0.0005879  -0.0002083  -0.0010846   0.0006606
           25          26          27          28          29          30
    1   0.0003800   0.0103748   0.0011791   0.0006801   0.0051544   0.0007270
    2   0.0006187   0.0007625   0.0007346  -0.0000239  -0.0042653   0.0000036
    3  -0.0007823   0.0031393  -0.0004423   0.0005226  -0.0084365  -0.0004244
           31          32          33          34          35          36
    1   0.0006303   0.0004992  -0.0045486   0.0001308  -0.0000842  -0.0004329
    2   0.0002844  -0.0000357  -0.0075289  -0.0001469  -0.0005113  -0.0005494
    3  -0.0006522  -0.0006674  -0.0076411  -0.0004800  -0.0002941  -0.0006932
           37          38          39          40
    1   0.0027954  -0.0001830   0.0005078   0.0002005
    2  -0.0062717  -0.0008627  -0.0004194  -0.0002273
    3   0.0096303   0.0000491   0.0005302   0.0006806
 Max gradient component =       1.037E-02
 RMS gradient           =       2.972E-03
 Gradient time:  CPU 1344.53 s  wall 220.97 s
 Geometry Optimization Parameters
   NAtoms,    NIC,     NZ,  NCons,   NDum,   NFix, NCnnct, MaxDiis
       40     289      40       0       0       0       0       0


** GEOMETRY OPTIMIZATION IN DELOCALIZED INTERNAL COORDINATES **
   Searching for a Minimum

   Optimization Cycle:   1

                       Coordinates (Angstroms)
     ATOM                X               Y               Z
      1  C         1.2558398991    0.1061050091    0.1334862918
      2  C         1.6529516081    1.4185765970    0.2449916623
      3  C        -0.1206931660   -0.3641237096    0.4179506586
      4  H        -0.1819854801   -1.3134650292    0.9641715275
      5  C        -1.2959582321    0.2042658148    0.0009627984
      6  H        -1.2532537308    1.1060171023   -0.6203193032
      7  C        -2.6451096135   -0.3070321213    0.2626717437
      8  C        -3.7190076666    0.3503538142   -0.3068241034
      9  H        -3.4916077430    1.2316603078   -0.9217718812
     10  C        -5.1306903271    0.0196077757   -0.2057836731
     11  H        -5.4116543899   -0.8526469024    0.3953042473
     12  C        -6.1228584917    0.7247964294   -0.8171237383
     13  H        -7.1738957713    0.4438753795   -0.7202215512
     14  H        -5.9071603251    1.6028367359   -1.4343839919
     15  C        -2.7926713839   -1.5446414668    1.1405673611
     16  H        -3.8429267729   -1.8087786434    1.3250315748
     17  H        -2.3073648218   -1.3897853589    2.1209684167
     18  H        -2.3042405283   -2.4215411989    0.6761960223
     19  C         0.7430428023    2.5519702839    0.7081108342
     20  H        -0.1699077978    2.1897821276    1.2012452027
     21  H         1.2842180697    3.2069287219    1.4165420768
     22  H         0.4333983115    3.1987186616   -0.1370904538
     23  C         3.0769743816    1.8847917448   -0.0798705863
     24  H         3.3844023577    2.6466059055    0.6625851457
     25  H         3.0596413598    2.4186592499   -1.0554345540
     26  C         4.1221778290    0.7461709920   -0.1363040074
     27  H         5.0534551951    1.1079537164   -0.6090122467
     28  H         4.3905742659    0.4364076259    0.8906182055
     29  C         3.5449710240   -0.4532278899   -0.9176866490
     30  H         4.2951027090   -1.2606255547   -1.0120831961
     31  H         3.3011066997   -0.1238136258   -1.9469437663
     32  C         2.2539164474   -1.0396224948   -0.2579118079
     33  C         1.5958758361   -2.0078595663   -1.2969608536
     34  H         0.7341920691   -2.5473247007   -0.8719146581
     35  H         1.2423524873   -1.4507719997   -2.1812751496
     36  H         2.3335719508   -2.7583850936   -1.6344139732
     37  C         2.6366003837   -1.8627082142    1.0211696182
     38  H         3.1448091381   -1.2329552720    1.7691356196
     39  H         1.7441404195   -2.2979925314    1.5022236324
     40  H         3.3108643457   -2.6958976109    0.7521697579
   Point Group: c1    Number of degrees of freedom:   114


   Energy is   -623.454082733


 Attempting to Generate Delocalized Internal Coordinates

114 Hessian modes will be used to form the next step
  Hessian Eigenvalues:
     0.002000    0.002000    0.003508    0.005537    0.005812    0.005936
     0.009091    0.010324    0.011535    0.013525    0.013633    0.013919
     0.015339    0.019204    0.020143    0.020208    0.021389    0.024797
     0.026313    0.027415    0.027415    0.028452    0.029669    0.040619
     0.046567    0.048013    0.050714    0.051601    0.053268    0.053390
     0.054656    0.055163    0.057535    0.067983    0.068474    0.069100
     0.071692    0.072121    0.078097    0.078669    0.083055    0.096670
     0.098046    0.121440    0.132748    0.159421    0.159766    0.159934
     0.159998    0.159999    0.160000    0.160000    0.160000    0.160000
     0.160000    0.160000    0.160000    0.160000    0.160000    0.160000
     0.160000    0.160000    0.160000    0.160000    0.187888    0.220000
     0.220001    0.220023    0.220089    0.228118    0.249756    0.249992
     0.249992    0.249994    0.258128    0.260049    0.261420    0.263913
     0.272191    0.276239    0.286634    0.298477    0.299356    0.323658
     0.327711    0.328276    0.328876    0.330039    0.330144    0.330310
     0.330602    0.331062    0.331188    0.331267    0.331516    0.333149
     0.333165    0.334662    0.334728    0.337909    0.338420    0.338551
     0.340184    0.341356    0.341410    0.342688    0.343204    0.345552
     0.361830    0.377995    0.482385    0.487506    0.508860    0.525173

 Minimum Search - Taking Simple RFO Step
 Searching for Lamda that Minimizes Along All modes
 Value Taken    Lamda =  -0.00775600
 Step Taken.  Stepsize is  0.198992

                             Maximum     Tolerance    Cnvgd?
         Gradient           0.024128      0.000300      NO
         Displacement       0.093028      0.001200      NO
         Energy change     *********      0.000001      NO


 New Cartesian Coordinates Obtained by Inverse Iteration

 Displacement from previous Coordinates is:  1.077453
 ----------------------------------------------------------------
             Standard Nuclear Orientation (Angstroms)
    I     Atom           X                Y                Z
 ----------------------------------------------------------------
    1      C       1.2480572026     0.0833419069     0.1109838477
    2      C       1.6218555510     1.3894263388     0.2120791759
    3      C      -0.1114976126    -0.3910051451     0.3749794077
    4      H      -0.1819551092    -1.3504906381     0.9038048870
    5      C      -1.2671901952     0.1996918202    -0.0305357732
    6      H      -1.2139884645     1.1232568599    -0.6179325080
    7      C      -2.6026926309    -0.3059399273     0.2232696256
    8      C      -3.6744339608     0.3769315068    -0.2896200708
    9      H      -3.4575789047     1.2841871290    -0.8679738722
   10      C      -5.0714973612     0.0460217749    -0.1576997442
   11      H      -5.3351981376    -0.8495989003     0.4147360207
   12      C      -6.0705093630     0.7798845503    -0.7010750504
   13      H      -7.1194358134     0.5024743050    -0.5798058715
   14      H      -5.8629295726     1.6853125775    -1.2814871725
   15      C      -2.7381575949    -1.5616875632     1.0390917997
   16      H      -3.7865029266    -1.8275701814     1.2243513292
   17      H      -2.2392166884    -1.4492042059     2.0169617290
   18      H      -2.2582305266    -2.4173670890     0.5306146547
   19      C       0.6922505581     2.4986466177     0.6242626805
   20      H      -0.2258690750     2.1280600030     1.1011061380
   21      H       1.2055028443     3.1763261712     1.3303100146
   22      H       0.3931018572     3.1186085355    -0.2430416105
   23      C       3.0264797713     1.8594601891    -0.0860242987
   24      H       3.3072889931     2.6353494492     0.6497648869
   25      H       3.0251038805     2.3743028972    -1.0701568438
   26      C       4.0634342853     0.7387228143    -0.0957376673
   27      H       5.0055600687     1.0964457560    -0.5442321313
   28      H       4.2989668023     0.4393735194     0.9411765145
   29      C       3.5204767211    -0.4529245118    -0.8754488119
   30      H       4.2745858409    -1.2579824127    -0.9451960988
   31      H       3.2904908184    -0.1352998457    -1.9106585545
   32      C       2.2444404292    -1.0336650364    -0.2416541059
   33      C       1.6194731769    -2.0042570878    -1.2593285607
   34      H       0.7561308573    -2.5440655327    -0.8372437715
   35      H       1.2759700011    -1.4591600660    -2.1549843464
   36      H       2.3723823362    -2.7501305743    -1.5710008798
   37      C       2.6061332633    -1.8175840494     1.0351995012
   38      H       3.0986011899    -1.1676034287     1.7776160091
   39      H       1.7053682669    -2.2469026853     1.5060623967
   40      H       3.2884225699    -2.6505008298     0.7872393784
 ----------------------------------------------------------------
 Molecular Point Group                 C1    NOp =  1
 Largest Abelian Subgroup              C1    NOp =  1
 Nuclear Repulsion Energy =  1077.4561361758 hartrees
 There are       60 alpha and       60 beta electrons
 Applying Cartesian multipole field
    Component          Value
    ---------          -----
     (2,0,0)        1.00000E-12
     (0,2,0)        2.00000E-11
     (0,0,2)       -3.00000E-11
 Nucleus-field energy     =     0.0000000136 hartrees
 Requested basis set is VDZ
 There are 128 shells and 192 basis functions
 A cutoff of  1.0D-11 yielded   6631 shell pairs
 There are     15313 function pairs
 Smallest overlap matrix eigenvalue = 8.92E-04
 Guess MOs from SCF MO coefficient file

 -----------------------------------------------------------------------
  General SCF calculation program by
  Eric Jon Sundstrom, Paul Horn, Yuezhi Mao, Dmitri Zuev, Alec White,
  David Stuck, Shaama M.S., Shane Yost, Joonho Lee, David Small,
  Daniel Levine, Susi Lehtola, Hugh Burton, Evgeny Epifanovsky
 -----------------------------------------------------------------------
 Exchange:  B97M-V      Correlation:  B97M-V
 Using SG-2 standard quadrature grid
 Nonlocal Correlation:  rVV10 with C = 0.0100 and b = 6.00 and scale = 1.00000
 Grid used for NLC:  SG-1 standard quadrature
 using 8 threads for integral computing
 -------------------------------------------------------
 OpenMP Integral computing Module                
 Release: version 1.0, May 2013, Q-Chem Inc. Pittsburgh 
 -------------------------------------------------------
 -------------------------------------------------------
 OpenMP BLAS3 based DFT computing Module                
 Release: version 1.0, May 2013, Q-Chem Inc. Pittsburgh 
 -------------------------------------------------------
 -------------------------------------------------------
 OpenMP BLAS3 based DFT computing Module                
 Release: version 1.0, May 2013, Q-Chem Inc. Pittsburgh 
 -------------------------------------------------------
 -------------------------------------------------------
 OpenMP BLAS3 based DFT computing Module                
 Release: version 1.0, May 2013, Q-Chem Inc. Pittsburgh 
 -------------------------------------------------------
 Nonlocal correlation = 0.439152364893
 A restricted SCF calculation will be
 performed using DIIS
 SCF converges when DIIS error is below 1.0e-08
 ---------------------------------------
  Cycle       Energy         DIIS error
 ---------------------------------------
 Nonlocal correlation = 4.393606464695e-01
    1    -623.4503373407      8.04e-04  
 Nonlocal correlation = 4.392614207044e-01
    2    -623.4568095093      2.26e-04  
 Nonlocal correlation = 4.392765383367e-01
    3    -623.4563861684      3.42e-04  
 Nonlocal correlation = 4.392937221499e-01
    4    -623.4570005779      1.17e-04  
 Nonlocal correlation = 4.392963813387e-01
    5    -623.4570884005      1.19e-05  
 Nonlocal correlation = 4.392963717643e-01
    6    -623.4570890059      5.61e-06  
 Nonlocal correlation = 4.392961745399e-01
    7    -623.4570891496      2.20e-06  
 Nonlocal correlation = 4.392961086808e-01
    8    -623.4570891756      5.70e-07  
 Nonlocal correlation = 4.392961082021e-01
    9    -623.4570891772      3.06e-07  
 Nonlocal correlation = 4.392961136760e-01
   10    -623.4570891777      5.08e-08  
 Nonlocal correlation = 4.392961123504e-01
   11    -623.4570891777      1.51e-08  
   12    -623.4570891777      4.56e-09  Convergence criterion met
 ---------------------------------------
 SCF time:   CPU 6027.86s  wall 755.00s 
 SCF   energy in the final basis set =     -623.4570891777
 Total energy in the final basis set =     -623.4570891777
 
 --------------------------------------------------------------
 
                    Orbital Energies (a.u.)
 --------------------------------------------------------------
 
 Alpha MOs
 -- Occupied --
-10.205 -10.204 -10.195 -10.193 -10.189 -10.188 -10.187 -10.186
-10.184 -10.182 -10.181 -10.180 -10.178 -10.173 -10.173 -10.169
 -0.834  -0.807  -0.767  -0.763  -0.740  -0.702  -0.665  -0.656
 -0.654  -0.648  -0.598  -0.563  -0.544  -0.520  -0.501  -0.479
 -0.460  -0.443  -0.437  -0.422  -0.416  -0.402  -0.398  -0.394
 -0.388  -0.378  -0.375  -0.369  -0.367  -0.360  -0.347  -0.344
 -0.335  -0.328  -0.324  -0.318  -0.313  -0.304  -0.295  -0.289
 -0.275  -0.265  -0.221  -0.179
 -- Virtual --
 -0.075  -0.008   0.030   0.036   0.042   0.057   0.063   0.067
  0.074   0.078   0.082   0.093   0.096   0.099   0.109   0.118
  0.125   0.134   0.137   0.140   0.146   0.152   0.159   0.169
  0.173   0.178   0.186   0.188   0.200   0.205   0.215   0.223
  0.228   0.239   0.252   0.259   0.267   0.300   0.308   0.342
  0.348   0.362   0.373   0.378   0.402   0.420   0.433   0.440
  0.450   0.457   0.460   0.473   0.477   0.480   0.485   0.504
  0.515   0.519   0.524   0.534   0.542   0.560   0.580   0.586
  0.592   0.608   0.614   0.617   0.622   0.635   0.638   0.643
  0.648   0.653   0.666   0.667   0.669   0.678   0.683   0.689
  0.690   0.699   0.700   0.706   0.709   0.709   0.713   0.721
  0.725   0.727   0.729   0.734   0.738   0.741   0.747   0.753
  0.763   0.767   0.775   0.781   0.790   0.792   0.804   0.808
  0.835   0.838   0.859   0.881   0.885   0.892   0.909   0.927
  0.938   0.997   1.014   1.032   1.053   1.086   1.107   1.124
  1.144   1.174   1.188   1.199   1.218   1.265   1.283   1.322
  1.339   1.381   1.393   1.508
 --------------------------------------------------------------
 
          Ground-State Mulliken Net Atomic Charges

     Atom                 Charge (a.u.)
  ----------------------------------------
      1 C                     0.065246
      2 C                    -0.144363
      3 C                    -0.105758
      4 H                     0.090550
      5 C                    -0.110776
      6 H                     0.074865
      7 C                    -0.057545
      8 C                    -0.136619
      9 H                     0.065929
     10 C                    -0.065606
     11 H                     0.083522
     12 C                    -0.217347
     13 H                     0.104145
     14 H                     0.102060
     15 C                    -0.245025
     16 H                     0.119743
     17 H                     0.125468
     18 H                     0.126603
     19 C                    -0.260117
     20 H                     0.138484
     21 H                     0.103751
     22 H                     0.120845
     23 C                    -0.159200
     24 H                     0.095936
     25 H                     0.106946
     26 C                    -0.150758
     27 H                     0.093833
     28 H                     0.101271
     29 C                    -0.115975
     30 H                     0.088403
     31 H                     0.092171
     32 C                    -0.378891
     33 C                    -0.177760
     34 H                     0.102839
     35 H                     0.106062
     36 H                     0.100913
     37 C                    -0.208351
     38 H                     0.111889
     39 H                     0.109474
     40 H                     0.103143
  ----------------------------------------
  Sum of atomic charges =    -0.000000

 -----------------------------------------------------------------
                    Cartesian Multipole Moments
 -----------------------------------------------------------------
    Charge (ESU x 10^10)
                -0.0000
    Dipole Moment (Debye)
         X       0.7411      Y      -0.1073      Z       0.2307
       Tot       0.7836
    Quadrupole Moments (Debye-Ang)
        XX    -100.4250     XY       2.1148     YY     -99.1824
        XZ      -1.2076     YZ      -3.1142     ZZ    -104.3161
    Octopole Moments (Debye-Ang^2)
       XXX      -2.2686    XXY      -5.1601    XYY       0.9957
       YYY       2.4983    XXZ       1.4269    XYZ      11.1900
       YYZ      -0.6701    XZZ       6.5326    YZZ       2.2388
       ZZZ       2.2954
    Hexadecapole Moments (Debye-Ang^3)
      XXXX   -5891.0086   XXXY      60.7930   XXYY   -1206.7226
      XYYY      26.5773   YYYY   -1277.1366   XXXZ      -5.7957
      XXYZ     -47.0411   XYYZ       8.6138   YYYZ      -1.7593
      XXZZ   -1120.3915   XYZZ       9.1242   YYZZ    -288.2681
      XZZZ      -4.7516   YZZZ      -2.1925   ZZZZ    -454.6794
 -----------------------------------------------------------------
 Calculating analytic gradient of the SCF energy
 Gradient of SCF Energy
            1           2           3           4           5           6
    1   0.0010035  -0.0000663  -0.0018318   0.0002616   0.0021968   0.0002094
    2   0.0035999  -0.0049833   0.0003799  -0.0006530  -0.0007873   0.0015062
    3   0.0000131  -0.0003753  -0.0010132   0.0010450   0.0009367   0.0004067
            7           8           9          10          11          12
    1  -0.0010315   0.0014113   0.0000390  -0.0002190   0.0000347   0.0020038
    2   0.0008655  -0.0010621   0.0002003   0.0001492  -0.0002283  -0.0006368
    3  -0.0008032   0.0005157   0.0000510  -0.0003163   0.0003073   0.0003663
           13          14          15          16          17          18
    1   0.0000991  -0.0000715   0.0007135  -0.0006233   0.0003450  -0.0000092
    2  -0.0001951   0.0000986  -0.0004033   0.0006978   0.0005990   0.0003045
    3   0.0001839  -0.0000358   0.0003920  -0.0003135  -0.0002670  -0.0004795
           19          20          21          22          23          24
    1  -0.0007871  -0.0008413   0.0002533   0.0005349  -0.0002709  -0.0002374
    2   0.0006296  -0.0014798  -0.0007285  -0.0004413   0.0013028  -0.0006985
    3  -0.0009681  -0.0004831   0.0002252  -0.0001254  -0.0007361   0.0005306
           25          26          27          28          29          30
    1  -0.0002058  -0.0003051  -0.0006345  -0.0002910  -0.0012126  -0.0001971
    2  -0.0005683  -0.0009200   0.0001698  -0.0002281  -0.0003211  -0.0000321
    3   0.0000999   0.0015564  -0.0008460   0.0002671  -0.0007256   0.0008836
           31          32          33          34          35          36
    1  -0.0002790   0.0002421  -0.0000867  -0.0002176   0.0001897   0.0004099
    2  -0.0000747   0.0002691   0.0004505   0.0004456   0.0005696   0.0003889
    3   0.0001676  -0.0002552   0.0001702   0.0008787   0.0002899   0.0004468
           37          38          39          40
    1  -0.0000951   0.0001924  -0.0006335   0.0000074
    2   0.0002427   0.0009018   0.0002430   0.0004275
    3  -0.0003126  -0.0003811  -0.0005841  -0.0007128
 Max gradient component =       4.983E-03
 RMS gradient           =       8.658E-04
 Gradient time:  CPU 1345.39 s  wall 221.93 s
 Geometry Optimization Parameters
   NAtoms,    NIC,     NZ,  NCons,   NDum,   NFix, NCnnct, MaxDiis
       40     289      40       0       0       0       0       0

 Cartesian Hessian Update
 Hessian Updated using BFGS Update


** GEOMETRY OPTIMIZATION IN DELOCALIZED INTERNAL COORDINATES **
   Searching for a Minimum

   Optimization Cycle:   2

                       Coordinates (Angstroms)
     ATOM                X               Y               Z
      1  C         1.2480572026    0.0833419069    0.1109838477
      2  C         1.6218555510    1.3894263388    0.2120791759
      3  C        -0.1114976126   -0.3910051451    0.3749794077
      4  H        -0.1819551092   -1.3504906381    0.9038048870
      5  C        -1.2671901952    0.1996918202   -0.0305357732
      6  H        -1.2139884645    1.1232568599   -0.6179325080
      7  C        -2.6026926309   -0.3059399273    0.2232696256
      8  C        -3.6744339608    0.3769315068   -0.2896200708
      9  H        -3.4575789047    1.2841871290   -0.8679738722
     10  C        -5.0714973612    0.0460217749   -0.1576997442
     11  H        -5.3351981376   -0.8495989003    0.4147360207
     12  C        -6.0705093630    0.7798845503   -0.7010750504
     13  H        -7.1194358134    0.5024743050   -0.5798058715
     14  H        -5.8629295726    1.6853125775   -1.2814871725
     15  C        -2.7381575949   -1.5616875632    1.0390917997
     16  H        -3.7865029266   -1.8275701814    1.2243513292
     17  H        -2.2392166884   -1.4492042059    2.0169617290
     18  H        -2.2582305266   -2.4173670890    0.5306146547
     19  C         0.6922505581    2.4986466177    0.6242626805
     20  H        -0.2258690750    2.1280600030    1.1011061380
     21  H         1.2055028443    3.1763261712    1.3303100146
     22  H         0.3931018572    3.1186085355   -0.2430416105
     23  C         3.0264797713    1.8594601891   -0.0860242987
     24  H         3.3072889931    2.6353494492    0.6497648869
     25  H         3.0251038805    2.3743028972   -1.0701568438
     26  C         4.0634342853    0.7387228143   -0.0957376673
     27  H         5.0055600687    1.0964457560   -0.5442321313
     28  H         4.2989668023    0.4393735194    0.9411765145
     29  C         3.5204767211   -0.4529245118   -0.8754488119
     30  H         4.2745858409   -1.2579824127   -0.9451960988
     31  H         3.2904908184   -0.1352998457   -1.9106585545
     32  C         2.2444404292   -1.0336650364   -0.2416541059
     33  C         1.6194731769   -2.0042570878   -1.2593285607
     34  H         0.7561308573   -2.5440655327   -0.8372437715
     35  H         1.2759700011   -1.4591600660   -2.1549843464
     36  H         2.3723823362   -2.7501305743   -1.5710008798
     37  C         2.6061332633   -1.8175840494    1.0351995012
     38  H         3.0986011899   -1.1676034287    1.7776160091
     39  H         1.7053682669   -2.2469026853    1.5060623967
     40  H         3.2884225699   -2.6505008298    0.7872393784
   Point Group: c1    Number of degrees of freedom:   114


   Energy is   -623.457089178

 Hessian Updated using BFGS Update

102 Hessian modes will be used to form the next step
  Hessian Eigenvalues:
     0.002000    0.002000    0.003508    0.005536    0.005798    0.005932
     0.009091    0.010340    0.011911    0.013528    0.013619    0.014021
     0.015337    0.019307    0.020143    0.020311    0.021393    0.024792
     0.026343    0.027415    0.027419    0.028501    0.029694    0.040844
     0.046567    0.048026    0.050811    0.051601    0.053265    0.053388
     0.054654    0.055163    0.057571    0.067985    0.068496    0.069100
     0.071692    0.072110    0.078121    0.078698    0.083086    0.096656
     0.098034    0.121435    0.132828    0.159165    0.159532    0.159792
     0.159936    0.159998    0.159999    0.161157    0.187880    0.219433
     0.220002    0.220010    0.221136    0.228625    0.242195    0.249830
     0.249992    0.250052    0.259447    0.259942    0.262764    0.270187
     0.271802    0.278698    0.292230    0.298883    0.304359    0.323726
     0.327747    0.328283    0.328889    0.330050    0.330156    0.330303
     0.330576    0.331055    0.331193    0.331275    0.331506    0.333152
     0.333165    0.334684    0.334749    0.337868    0.338358    0.338539
     0.340161    0.341213    0.341374    0.342688    0.345550    0.349740
     0.367581    0.380282    0.485683    0.501368    0.521378    0.553119

 Minimum Search - Taking Simple RFO Step
 Searching for Lamda that Minimizes Along All modes
 Value Taken    Lamda =  -0.00111170
 Step Taken.  Stepsize is  0.210685

                             Maximum     Tolerance    Cnvgd?
         Gradient           0.007549      0.000300      NO
         Displacement       0.078463      0.001200      NO
         Energy change     -0.003006      0.000001      NO


 New Cartesian Coordinates Obtained by Inverse Iteration

 Displacement from previous Coordinates is:  0.802384
 ----------------------------------------------------------------
             Standard Nuclear Orientation (Angstroms)
    I     Atom           X                Y                Z
 ----------------------------------------------------------------
    1      C       1.2472320183     0.1040003170     0.1337357311
    2      C       1.6434884133     1.4088358275     0.2403494172
    3      C      -0.1156938921    -0.3641924452     0.4042737464
    4      H      -0.1839040817    -1.3152384424     0.9459422682
    5      C      -1.2785761807     0.1959737307    -0.0307681735
    6      H      -1.2316627747     1.0906651308    -0.6594774607
    7      C      -2.6128050382    -0.3158134499     0.2263438843
    8      C      -3.6858388833     0.3427954934    -0.3201840762
    9      H      -3.4667006999     1.2318034702    -0.9248866602
   10      C      -5.0842873860     0.0126661004    -0.1946412691
   11      H      -5.3521724308    -0.8667200257     0.3996719065
   12      C      -6.0806803110     0.7271548419    -0.7697660503
   13      H      -7.1303834466     0.4506747082    -0.6533071078
   14      H      -5.8680557481     1.6158707428    -1.3735949127
   15      C      -2.7456413222    -1.5467942163     1.0792989740
   16      H      -3.7910825412    -1.8314683759     1.2488657977
   17      H      -2.2754170637    -1.3962726948     2.0661312970
   18      H      -2.2362168271    -2.4096714788     0.6136339311
   19      C       0.7597612559     2.5333071741     0.7077884545
   20      H      -0.1195051600     2.1884435437     1.2671464494
   21      H       1.3348713925     3.2188085791     1.3564611100
   22      H       0.3966907067     3.1452414733    -0.1409630434
   23      C       3.0465136683     1.8591014144    -0.0934772739
   24      H       3.3544155234     2.6373071720     0.6290216687
   25      H       3.0283552202     2.3723244665    -1.0786386300
   26      C       4.0710661032     0.7301301497    -0.1224043564
   27      H       5.0130221544     1.0766649418    -0.5798578402
   28      H       4.3186221120     0.4265850819     0.9100222186
   29      C       3.5015546998    -0.4520901049    -0.8934682985
   30      H       4.2457601347    -1.2640526904    -0.9873763408
   31      H       3.2563664336    -0.1247719957    -1.9222250326
   32      C       2.2279259860    -1.0234633655    -0.2427254656
   33      C       1.5823702214    -1.9797581269    -1.2629835505
   34      H       0.7240099677    -2.5250961702    -0.8387174473
   35      H       1.2262867166    -1.4250169195    -2.1477546363
   36      H       2.3259532416    -2.7251269678    -1.5977304955
   37      C       2.5989803026    -1.8266263175     1.0213421098
   38      H       3.1152086093    -1.1963664059     1.7640812949
   39      H       1.7016684378    -2.2464551013     1.5066123784
   40      H       3.2616938164    -2.6704740541     0.7569977370
 ----------------------------------------------------------------
 Molecular Point Group                 C1    NOp =  1
 Largest Abelian Subgroup              C1    NOp =  1
 Nuclear Repulsion Energy =  1075.2757346833 hartrees
 There are       60 alpha and       60 beta electrons
 Applying Cartesian multipole field
    Component          Value
    ---------          -----
     (2,0,0)        1.00000E-12
     (0,2,0)        2.00000E-11
     (0,0,2)       -3.00000E-11
 Nucleus-field energy     =     0.0000000131 hartrees
 Requested basis set is VDZ
 There are 128 shells and 192 basis functions
 A cutoff of  1.0D-11 yielded   6615 shell pairs
 There are     15265 function pairs
 Smallest overlap matrix eigenvalue = 9.39E-04
 Guess MOs from SCF MO coefficient file

 -----------------------------------------------------------------------
  General SCF calculation program by
  Eric Jon Sundstrom, Paul Horn, Yuezhi Mao, Dmitri Zuev, Alec White,
  David Stuck, Shaama M.S., Shane Yost, Joonho Lee, David Small,
  Daniel Levine, Susi Lehtola, Hugh Burton, Evgeny Epifanovsky
 -----------------------------------------------------------------------
 Exchange:  B97M-V      Correlation:  B97M-V
 Using SG-2 standard quadrature grid
 Nonlocal Correlation:  rVV10 with C = 0.0100 and b = 6.00 and scale = 1.00000
 Grid used for NLC:  SG-1 standard quadrature
 using 8 threads for integral computing
 -------------------------------------------------------
 OpenMP Integral computing Module                
 Release: version 1.0, May 2013, Q-Chem Inc. Pittsburgh 
 -------------------------------------------------------
 -------------------------------------------------------
 OpenMP BLAS3 based DFT computing Module                
 Release: version 1.0, May 2013, Q-Chem Inc. Pittsburgh 
 -------------------------------------------------------
 -------------------------------------------------------
 OpenMP BLAS3 based DFT computing Module                
 Release: version 1.0, May 2013, Q-Chem Inc. Pittsburgh 
 -------------------------------------------------------
 -------------------------------------------------------
 OpenMP BLAS3 based DFT computing Module                
 Release: version 1.0, May 2013, Q-Chem Inc. Pittsburgh 
 -------------------------------------------------------
 Nonlocal correlation = 0.439601819056
 A restricted SCF calculation will be
 performed using DIIS
 SCF converges when DIIS error is below 1.0e-08
 ---------------------------------------
  Cycle       Energy         DIIS error
 ---------------------------------------
 Nonlocal correlation = 4.395696085597e-01
    1    -623.4520986547      6.77e-04  
 Nonlocal correlation = 4.395845080847e-01
    2    -623.4571119565      4.51e-05  
 Nonlocal correlation = 4.395806748707e-01
    3    -623.4570992707      6.64e-05  
 Nonlocal correlation = 4.395775221003e-01
    4    -623.4571219910      2.33e-05  
 Nonlocal correlation = 4.395780044157e-01
    5    -623.4571249441      8.01e-06  
 Nonlocal correlation = 4.395781384538e-01
    6    -623.4571252444      3.54e-06  
 Nonlocal correlation = 4.395782380681e-01
    7    -623.4571253141      9.34e-07  
 Nonlocal correlation = 4.395781964975e-01
    8    -623.4571253199      2.25e-07  
 Nonlocal correlation = 4.395781984734e-01
    9    -623.4571253202      7.01e-08  
 Nonlocal correlation = 4.395782010548e-01
   10    -623.4571253202      4.15e-08  
   11    -623.4571253202      5.84e-09  Convergence criterion met
 ---------------------------------------
 SCF time:   CPU 5524.50s  wall 692.00s 
 SCF   energy in the final basis set =     -623.4571253202
 Total energy in the final basis set =     -623.4571253202
 
 --------------------------------------------------------------
 
                    Orbital Energies (a.u.)
 --------------------------------------------------------------
 
 Alpha MOs
 -- Occupied --
-10.206 -10.205 -10.196 -10.194 -10.190 -10.189 -10.188 -10.187
-10.184 -10.182 -10.181 -10.180 -10.178 -10.174 -10.173 -10.169
 -0.832  -0.807  -0.766  -0.763  -0.740  -0.703  -0.665  -0.656
 -0.654  -0.647  -0.598  -0.563  -0.543  -0.520  -0.500  -0.478
 -0.460  -0.443  -0.437  -0.422  -0.417  -0.402  -0.397  -0.394
 -0.388  -0.378  -0.375  -0.369  -0.367  -0.359  -0.347  -0.344
 -0.334  -0.328  -0.324  -0.318  -0.314  -0.304  -0.295  -0.289
 -0.275  -0.265  -0.220  -0.179
 -- Virtual --
 -0.075  -0.009   0.029   0.036   0.042   0.057   0.062   0.067
  0.074   0.078   0.081   0.092   0.095   0.099   0.108   0.117
  0.124   0.134   0.137   0.140   0.145   0.151   0.159   0.169
  0.173   0.178   0.186   0.188   0.200   0.205   0.216   0.222
  0.227   0.238   0.253   0.259   0.266   0.300   0.306   0.342
  0.348   0.360   0.374   0.378   0.400   0.418   0.434   0.440
  0.450   0.458   0.458   0.471   0.475   0.476   0.487   0.503
  0.511   0.516   0.519   0.535   0.542   0.557   0.579   0.588
  0.594   0.608   0.615   0.618   0.621   0.635   0.637   0.642
  0.649   0.655   0.665   0.667   0.668   0.678   0.683   0.689
  0.691   0.693   0.699   0.705   0.707   0.710   0.712   0.719
  0.723   0.727   0.728   0.735   0.737   0.740   0.746   0.751
  0.762   0.767   0.773   0.780   0.786   0.791   0.800   0.807
  0.833   0.836   0.856   0.877   0.887   0.891   0.907   0.930
  0.936   0.995   1.006   1.031   1.051   1.082   1.103   1.127
  1.142   1.169   1.181   1.199   1.212   1.264   1.284   1.321
  1.338   1.380   1.392   1.503
 --------------------------------------------------------------
 
          Ground-State Mulliken Net Atomic Charges

     Atom                 Charge (a.u.)
  ----------------------------------------
      1 C                     0.062434
      2 C                    -0.140964
      3 C                    -0.104353
      4 H                     0.088755
      5 C                    -0.104476
      6 H                     0.070648
      7 C                    -0.056557
      8 C                    -0.136503
      9 H                     0.065935
     10 C                    -0.064963
     11 H                     0.082985
     12 C                    -0.217003
     13 H                     0.104651
     14 H                     0.102134
     15 C                    -0.246445
     16 H                     0.119558
     17 H                     0.125549
     18 H                     0.126410
     19 C                    -0.254275
     20 H                     0.133131
     21 H                     0.103852
     22 H                     0.120644
     23 C                    -0.162838
     24 H                     0.095241
     25 H                     0.107570
     26 C                    -0.148855
     27 H                     0.093660
     28 H                     0.100593
     29 C                    -0.117822
     30 H                     0.088529
     31 H                     0.091917
     32 C                    -0.375410
     33 C                    -0.178397
     34 H                     0.102853
     35 H                     0.105792
     36 H                     0.100802
     37 C                    -0.209258
     38 H                     0.111545
     39 H                     0.109742
     40 H                     0.103189
  ----------------------------------------
  Sum of atomic charges =    -0.000000

 -----------------------------------------------------------------
                    Cartesian Multipole Moments
 -----------------------------------------------------------------
    Charge (ESU x 10^10)
                -0.0000
    Dipole Moment (Debye)
         X       0.7193      Y      -0.1090      Z       0.2342
       Tot       0.7643
    Quadrupole Moments (Debye-Ang)
        XX    -100.2505     XY       2.1587     YY     -99.2376
        XZ      -1.2054     YZ      -3.1450     ZZ    -104.0991
    Octopole Moments (Debye-Ang^2)
       XXX      -2.8044    XXY      -5.1514    XYY       1.9249
       YYY       2.6040    XXZ       1.0572    XYZ      11.5798
       YYZ      -0.2583    XZZ       5.9170    YZZ       2.4240
       ZZZ       2.4575
    Hexadecapole Moments (Debye-Ang^3)
      XXXX   -5897.8885   XXXY      42.0744   XXYY   -1211.0946
      XYYY       6.9593   YYYY   -1273.0911   XXXZ     -14.0357
      XXYZ     -49.5767   XYYZ       4.0787   YYYZ      -4.9491
      XXZZ   -1122.9120   XYZZ       0.1069   YYZZ    -290.6219
      XZZZ     -16.5998   YZZZ      -6.7140   ZZZZ    -473.3017
 -----------------------------------------------------------------
 Calculating analytic gradient of the SCF energy
 Gradient of SCF Energy
            1           2           3           4           5           6
    1   0.0000308   0.0003642  -0.0001903   0.0001140  -0.0010137  -0.0006160
    2  -0.0012256   0.0009439  -0.0003030   0.0000702  -0.0009404  -0.0014085
    3   0.0004919  -0.0014446  -0.0005576  -0.0005028  -0.0002224  -0.0003846
            7           8           9          10          11          12
    1  -0.0000850   0.0002185  -0.0000581  -0.0002146   0.0000515   0.0008277
    2   0.0002856  -0.0005130  -0.0000798   0.0003322   0.0001620  -0.0004179
    3  -0.0000523   0.0001559   0.0000810  -0.0002840  -0.0000948   0.0002873
           13          14          15          16          17          18
    1  -0.0000173   0.0000125   0.0002308   0.0001661  -0.0000203  -0.0000941
    2  -0.0000697  -0.0000221  -0.0000019   0.0002794   0.0002052   0.0001782
    3   0.0000406   0.0000322   0.0001101  -0.0000850  -0.0002797  -0.0001520
           19          20          21          22          23          24
    1   0.0008837   0.0016955   0.0004816   0.0004977  -0.0010717  -0.0002093
    2   0.0002044   0.0009882   0.0000178  -0.0003402  -0.0001978  -0.0002517
    3   0.0012593   0.0002790   0.0000420  -0.0001884  -0.0004355   0.0003486
           25          26          27          28          29          30
    1  -0.0001093  -0.0007458  -0.0003054  -0.0001878  -0.0008674   0.0000305
    2  -0.0001587  -0.0002483   0.0000079  -0.0000112   0.0001066   0.0001294
    3   0.0003196   0.0004314  -0.0002519  -0.0003214   0.0003608   0.0002751
           31          32          33          34          35          36
    1  -0.0000617  -0.0000414   0.0001984   0.0000923   0.0001572   0.0000943
    2   0.0000748   0.0006357   0.0005946   0.0002003   0.0001408   0.0002034
    3   0.0002963   0.0004651   0.0004311   0.0002090   0.0001206   0.0002029
           37          38          39          40
    1  -0.0000799  -0.0000591  -0.0000918  -0.0000078
    2   0.0000697   0.0001442   0.0001441   0.0000710
    3  -0.0003681  -0.0001990  -0.0002315  -0.0001839
 Max gradient component =       1.696E-03
 RMS gradient           =       4.541E-04
 Gradient time:  CPU 1345.69 s  wall 222.68 s
 Geometry Optimization Parameters
   NAtoms,    NIC,     NZ,  NCons,   NDum,   NFix, NCnnct, MaxDiis
       40     289      40       0       0       0       0       0

 Cartesian Hessian Update
 Hessian Updated using BFGS Update


** GEOMETRY OPTIMIZATION IN DELOCALIZED INTERNAL COORDINATES **
   Searching for a Minimum

   Optimization Cycle:   3

                       Coordinates (Angstroms)
     ATOM                X               Y               Z
      1  C         1.2472320183    0.1040003170    0.1337357311
      2  C         1.6434884133    1.4088358275    0.2403494172
      3  C        -0.1156938921   -0.3641924452    0.4042737464
      4  H        -0.1839040817   -1.3152384424    0.9459422682
      5  C        -1.2785761807    0.1959737307   -0.0307681735
      6  H        -1.2316627747    1.0906651308   -0.6594774607
      7  C        -2.6128050382   -0.3158134499    0.2263438843
      8  C        -3.6858388833    0.3427954934   -0.3201840762
      9  H        -3.4667006999    1.2318034702   -0.9248866602
     10  C        -5.0842873860    0.0126661004   -0.1946412691
     11  H        -5.3521724308   -0.8667200257    0.3996719065
     12  C        -6.0806803110    0.7271548419   -0.7697660503
     13  H        -7.1303834466    0.4506747082   -0.6533071078
     14  H        -5.8680557481    1.6158707428   -1.3735949127
     15  C        -2.7456413222   -1.5467942163    1.0792989740
     16  H        -3.7910825412   -1.8314683759    1.2488657977
     17  H        -2.2754170637   -1.3962726948    2.0661312970
     18  H        -2.2362168271   -2.4096714788    0.6136339311
     19  C         0.7597612559    2.5333071741    0.7077884545
     20  H        -0.1195051600    2.1884435437    1.2671464494
     21  H         1.3348713925    3.2188085791    1.3564611100
     22  H         0.3966907067    3.1452414733   -0.1409630434
     23  C         3.0465136683    1.8591014144   -0.0934772739
     24  H         3.3544155234    2.6373071720    0.6290216687
     25  H         3.0283552202    2.3723244665   -1.0786386300
     26  C         4.0710661032    0.7301301497   -0.1224043564
     27  H         5.0130221544    1.0766649418   -0.5798578402
     28  H         4.3186221120    0.4265850819    0.9100222186
     29  C         3.5015546998   -0.4520901049   -0.8934682985
     30  H         4.2457601347   -1.2640526904   -0.9873763408
     31  H         3.2563664336   -0.1247719957   -1.9222250326
     32  C         2.2279259860   -1.0234633655   -0.2427254656
     33  C         1.5823702214   -1.9797581269   -1.2629835505
     34  H         0.7240099677   -2.5250961702   -0.8387174473
     35  H         1.2262867166   -1.4250169195   -2.1477546363
     36  H         2.3259532416   -2.7251269678   -1.5977304955
     37  C         2.5989803026   -1.8266263175    1.0213421098
     38  H         3.1152086093   -1.1963664059    1.7640812949
     39  H         1.7016684378   -2.2464551013    1.5066123784
     40  H         3.2616938164   -2.6704740541    0.7569977370
   Point Group: c1    Number of degrees of freedom:   114


   Energy is   -623.457125320

 Hessian Updated using BFGS Update

103 Hessian modes will be used to form the next step
  Hessian Eigenvalues:
     0.001995    0.002001    0.003485    0.005495    0.005796    0.006024
     0.009076    0.010389    0.012829    0.013521    0.013529    0.015320
     0.016389    0.019959    0.020143    0.021388    0.022548    0.024772
     0.027249    0.027415    0.027421    0.028639    0.032298    0.040027
     0.046603    0.047962    0.050601    0.051741    0.053260    0.053389
     0.054645    0.055160    0.056897    0.068179    0.069099    0.069503
     0.071677    0.072356    0.078218    0.078696    0.083082    0.096680
     0.097768    0.121401    0.132407    0.151163    0.159537    0.159768
     0.159943    0.159970    0.159998    0.159999    0.161177    0.188066
     0.215993    0.219999    0.220010    0.223549    0.227455    0.247598
     0.249845    0.249971    0.250924    0.259698    0.260069    0.263009
     0.271428    0.272226    0.284286    0.296197    0.298944    0.323573
     0.324710    0.327674    0.328276    0.328907    0.330121    0.330165
     0.330311    0.330800    0.331045    0.331179    0.331273    0.331526
     0.333156    0.333174    0.334685    0.334758    0.338303    0.338536
     0.338697    0.340208    0.341304    0.341426    0.342688    0.345549
     0.359536    0.376405    0.388422    0.485194    0.505597    0.524118
     0.562026

 Minimum Search - Taking Simple RFO Step
 Searching for Lamda that Minimizes Along All modes
 Value Taken    Lamda =  -0.00085116
 Step Taken.  Stepsize is  0.130580

                             Maximum     Tolerance    Cnvgd?
         Gradient           0.007629      0.000300      NO
         Displacement       0.059041      0.001200      NO
         Energy change     -0.000036      0.000001      NO


 New Cartesian Coordinates Obtained by Inverse Iteration

 Displacement from previous Coordinates is:  0.895322
 ----------------------------------------------------------------
             Standard Nuclear Orientation (Angstroms)
    I     Atom           X                Y                Z
 ----------------------------------------------------------------
    1      C       1.2502001918     0.0805091798     0.1189028572
    2      C       1.6214092892     1.3951413148     0.2149534642
    3      C      -0.1129560571    -0.3953762662     0.3832503179
    4      H      -0.1815227269    -1.3552204318     0.9085129743
    5      C      -1.2777726292     0.1840359037    -0.0262773578
    6      H      -1.2267369696     1.0999320299    -0.6238629388
    7      C      -2.6181377730    -0.3221616778     0.2258027291
    8      C      -3.6887327890     0.3735707560    -0.2842801538
    9      H      -3.4609035407     1.2816519065    -0.8566690271
   10      C      -5.0933242067     0.0632047655    -0.1577037219
   11      H      -5.3710395265    -0.8348550990     0.4033069906
   12      C      -6.0845643712     0.8175594717    -0.6932019895
   13      H      -7.1378452223     0.5547021265    -0.5774652448
   14      H      -5.8626568288     1.7259275752    -1.2634210190
   15      C      -2.7605513573    -1.5853715695     1.0331072569
   16      H      -3.8071337157    -1.8719693891     1.1925367519
   17      H      -2.2905626305    -1.4777576749     2.0259452253
   18      H      -2.2564568431    -2.4344987694     0.5369938901
   19      C       0.6925613452     2.5077047649     0.6285451810
   20      H      -0.1980073861     2.1503806788     1.1632801118
   21      H       1.2234838911     3.2237632237     1.2816632749
   22      H       0.3398516039     3.0932499499    -0.2433777271
   23      C       3.0243462710     1.8671238402    -0.1048740996
   24      H       3.3076932066     2.6673190581     0.6037907239
   25      H       3.0129049030     2.3608552296    -1.1006872130
   26      C       4.0712464376     0.7556277051    -0.0983518182
   27      H       5.0183440983     1.1124379224    -0.5376477964
   28      H       4.3025753380     0.4709301208     0.9433843102
   29      C       3.5374413400    -0.4491100606    -0.8652166876
   30      H       4.2982382895    -1.2479227138    -0.9392131713
   31      H       3.3074504259    -0.1372521850    -1.9025878148
   32      C       2.2567869847    -1.0394623748    -0.2342724400
   33      C       1.6471075016    -2.0148310675    -1.2650414448
   34      H       0.7941448332    -2.5799065322    -0.8562175450
   35      H       1.2925717474    -1.4720001551    -2.1578772919
   36      H       2.4105999760    -2.7455406063    -1.5877152161
   37      C       2.6170897717    -1.8325984220     1.0440390608
   38      H       3.1124742756    -1.1941387475     1.7937243193
   39      H       1.7187867186    -2.2624444334     1.5185327395
   40      H       3.2947894817    -2.6703243365     0.7984617929
 ----------------------------------------------------------------
 Molecular Point Group                 C1    NOp =  1
 Largest Abelian Subgroup              C1    NOp =  1
 Nuclear Repulsion Energy =  1073.4834797077 hartrees
 There are       60 alpha and       60 beta electrons
 Applying Cartesian multipole field
    Component          Value
    ---------          -----
     (2,0,0)        1.00000E-12
     (0,2,0)        2.00000E-11
     (0,0,2)       -3.00000E-11
 Nucleus-field energy     =     0.0000000138 hartrees
 Requested basis set is VDZ
 There are 128 shells and 192 basis functions
 A cutoff of  1.0D-11 yielded   6606 shell pairs
 There are     15212 function pairs
 Smallest overlap matrix eigenvalue = 9.38E-04
 Guess MOs from SCF MO coefficient file

 -----------------------------------------------------------------------
  General SCF calculation program by
  Eric Jon Sundstrom, Paul Horn, Yuezhi Mao, Dmitri Zuev, Alec White,
  David Stuck, Shaama M.S., Shane Yost, Joonho Lee, David Small,
  Daniel Levine, Susi Lehtola, Hugh Burton, Evgeny Epifanovsky
 -----------------------------------------------------------------------
 Exchange:  B97M-V      Correlation:  B97M-V
 Using SG-2 standard quadrature grid
 Nonlocal Correlation:  rVV10 with C = 0.0100 and b = 6.00 and scale = 1.00000
 Grid used for NLC:  SG-1 standard quadrature
 using 8 threads for integral computing
 -------------------------------------------------------
 OpenMP Integral computing Module                
 Release: version 1.0, May 2013, Q-Chem Inc. Pittsburgh 
 -------------------------------------------------------
 -------------------------------------------------------
 OpenMP BLAS3 based DFT computing Module                
 Release: version 1.0, May 2013, Q-Chem Inc. Pittsburgh 
 -------------------------------------------------------
 -------------------------------------------------------
 OpenMP BLAS3 based DFT computing Module                
 Release: version 1.0, May 2013, Q-Chem Inc. Pittsburgh 
 -------------------------------------------------------
 -------------------------------------------------------
 OpenMP BLAS3 based DFT computing Module                
 Release: version 1.0, May 2013, Q-Chem Inc. Pittsburgh 
 -------------------------------------------------------
 Nonlocal correlation = 0.439722616913
 A restricted SCF calculation will be
 performed using DIIS
 SCF converges when DIIS error is below 1.0e-08
 ---------------------------------------
  Cycle       Energy         DIIS error
 ---------------------------------------
 Nonlocal correlation = 4.396884092566e-01
    1    -623.4523467731      6.79e-04  
 Nonlocal correlation = 4.397033101445e-01
    2    -623.4574554679      4.77e-05  
 Nonlocal correlation = 4.397007436018e-01
    3    -623.4574272591      8.35e-05  
 Nonlocal correlation = 4.396968244066e-01
    4    -623.4574656975      2.64e-05  
 Nonlocal correlation = 4.396971425376e-01
    5    -623.4574698618      7.50e-06  
 Nonlocal correlation = 4.396974138542e-01
    6    -623.4574701544      2.51e-06  
 Nonlocal correlation = 4.396974503116e-01
    7    -623.4574701844      1.02e-06  
 Nonlocal correlation = 4.396974262682e-01
    8    -623.4574701896      3.01e-07  
 Nonlocal correlation = 4.396974244546e-01
    9    -623.4574701900      1.16e-07  
 Nonlocal correlation = 4.396974259011e-01
   10    -623.4574701901      3.47e-08  
   11    -623.4574701901      5.57e-09  Convergence criterion met
 ---------------------------------------
 SCF time:   CPU 5523.67s  wall 692.00s 
 SCF   energy in the final basis set =     -623.4574701901
 Total energy in the final basis set =     -623.4574701901
 
 --------------------------------------------------------------
 
                    Orbital Energies (a.u.)
 --------------------------------------------------------------
 
 Alpha MOs
 -- Occupied --
-10.208 -10.206 -10.197 -10.194 -10.191 -10.189 -10.188 -10.187
-10.185 -10.182 -10.182 -10.181 -10.179 -10.174 -10.173 -10.170
 -0.831  -0.806  -0.765  -0.762  -0.739  -0.702  -0.665  -0.656
 -0.654  -0.647  -0.598  -0.563  -0.543  -0.520  -0.501  -0.478
 -0.459  -0.442  -0.437  -0.421  -0.416  -0.402  -0.397  -0.393
 -0.388  -0.378  -0.375  -0.369  -0.367  -0.359  -0.346  -0.344
 -0.335  -0.327  -0.324  -0.318  -0.314  -0.304  -0.295  -0.289
 -0.275  -0.265  -0.221  -0.179
 -- Virtual --
 -0.076  -0.009   0.030   0.036   0.042   0.057   0.063   0.066
  0.074   0.078   0.081   0.092   0.095   0.099   0.109   0.117
  0.124   0.133   0.137   0.140   0.145   0.151   0.158   0.169
  0.172   0.177   0.184   0.187   0.198   0.204   0.215   0.220
  0.227   0.238   0.252   0.258   0.264   0.298   0.308   0.341
  0.346   0.361   0.373   0.377   0.399   0.418   0.432   0.440
  0.450   0.457   0.458   0.470   0.475   0.479   0.486   0.501
  0.512   0.518   0.519   0.531   0.540   0.559   0.575   0.589
  0.592   0.608   0.614   0.616   0.621   0.634   0.638   0.640
  0.646   0.654   0.665   0.666   0.668   0.677   0.682   0.688
  0.689   0.696   0.699   0.704   0.707   0.709   0.712   0.719
  0.723   0.726   0.728   0.733   0.737   0.739   0.746   0.751
  0.761   0.766   0.773   0.779   0.787   0.790   0.801   0.807
  0.833   0.835   0.860   0.876   0.888   0.890   0.909   0.929
  0.937   0.995   1.006   1.030   1.052   1.081   1.102   1.126
  1.142   1.169   1.183   1.198   1.212   1.262   1.275   1.323
  1.334   1.378   1.390   1.504
 --------------------------------------------------------------
 
          Ground-State Mulliken Net Atomic Charges

     Atom                 Charge (a.u.)
  ----------------------------------------
      1 C                     0.062589
      2 C                    -0.139541
      3 C                    -0.102464
      4 H                     0.087402
      5 C                    -0.110762
      6 H                     0.073295
      7 C                    -0.053145
      8 C                    -0.137599
      9 H                     0.066028
     10 C                    -0.064833
     11 H                     0.082858
     12 C                    -0.217209
     13 H                     0.105021
     14 H                     0.102217
     15 C                    -0.248079
     16 H                     0.119568
     17 H                     0.125771
     18 H                     0.126091
     19 C                    -0.261053
     20 H                     0.137071
     21 H                     0.103668
     22 H                     0.122151
     23 C                    -0.163386
     24 H                     0.095592
     25 H                     0.107781
     26 C                    -0.149644
     27 H                     0.094287
     28 H                     0.100800
     29 C                    -0.120567
     30 H                     0.088961
     31 H                     0.092342
     32 C                    -0.365724
     33 C                    -0.183167
     34 H                     0.102703
     35 H                     0.106558
     36 H                     0.101550
     37 C                    -0.211717
     38 H                     0.111614
     39 H                     0.109795
     40 H                     0.103177
  ----------------------------------------
  Sum of atomic charges =    -0.000000

 -----------------------------------------------------------------
                    Cartesian Multipole Moments
 -----------------------------------------------------------------
    Charge (ESU x 10^10)
                -0.0000
    Dipole Moment (Debye)
         X       0.7268      Y      -0.1074      Z       0.2117
       Tot       0.7646
    Quadrupole Moments (Debye-Ang)
        XX    -100.1712     XY       2.1165     YY     -98.9644
        XZ      -1.2556     YZ      -3.1140     ZZ    -104.3750
    Octopole Moments (Debye-Ang^2)
       XXX      -2.7291    XXY      -5.0011    XYY       1.1060
       YYY       2.6214    XXZ       1.0711    XYZ      11.2170
       YYZ      -0.6478    XZZ       6.7476    YZZ       1.8449
       ZZZ       1.8356
    Hexadecapole Moments (Debye-Ang^3)
      XXXX   -5917.7165   XXXY      64.1415   XXYY   -1214.9810
      XYYY      31.4799   YYYY   -1291.2751   XXXZ      -3.6528
      XXYZ     -46.8975   XYYZ       9.5414   YYYZ       0.3903
      XXZZ   -1129.4352   XYZZ      10.2701   YYZZ    -290.8112
      XZZZ      -2.8031   YZZZ      -0.6231   ZZZZ    -455.1339
 -----------------------------------------------------------------
 Calculating analytic gradient of the SCF energy
 Gradient of SCF Energy
            1           2           3           4           5           6
    1   0.0000109  -0.0000876  -0.0001985  -0.0000085   0.0000714   0.0002063
    2   0.0000183   0.0003212  -0.0001186   0.0006208   0.0004411  -0.0000475
    3   0.0003063   0.0005011   0.0006411  -0.0000447  -0.0001973   0.0000443
            7           8           9          10          11          12
    1   0.0000164  -0.0002517  -0.0000772  -0.0002898  -0.0000616  -0.0007682
    2  -0.0000459   0.0003119  -0.0000900  -0.0001447   0.0002622   0.0002631
    3   0.0001773  -0.0004648   0.0000865   0.0001323  -0.0001410  -0.0002195
           13          14          15          16          17          18
    1  -0.0001057  -0.0000112  -0.0003644   0.0004079  -0.0000700  -0.0001516
    2   0.0000705  -0.0000945  -0.0005639  -0.0001697  -0.0001565  -0.0001513
    3  -0.0000520   0.0000150   0.0004686   0.0001681  -0.0001593   0.0000995
           19          20          21          22          23          24
    1  -0.0009087   0.0001275  -0.0001717   0.0000885   0.0001579   0.0001022
    2   0.0002802   0.0003786  -0.0000018   0.0001981   0.0001943   0.0000255
    3   0.0000938  -0.0001247   0.0001206   0.0000813  -0.0003781  -0.0000943
           25          26          27          28          29          30
    1   0.0001220   0.0007546   0.0001877   0.0000475   0.0004494   0.0001773
    2   0.0001394   0.0004689  -0.0000141   0.0001561  -0.0002207   0.0000717
    3   0.0001340  -0.0003143   0.0001720  -0.0004039  -0.0000405  -0.0002850
           31          32          33          34          35          36
    1   0.0001656  -0.0000334   0.0000520   0.0003141  -0.0000750  -0.0001668
    2   0.0000692   0.0000325  -0.0009253  -0.0001280  -0.0001777  -0.0001556
    3   0.0001284  -0.0005203  -0.0005337  -0.0004686  -0.0000179  -0.0002304
           37          38          39          40
    1   0.0002158  -0.0001747   0.0003291  -0.0000280
    2  -0.0005466  -0.0004144  -0.0000571  -0.0000995
    3   0.0009128   0.0000520   0.0001103   0.0002448
 Max gradient component =       9.253E-04
 RMS gradient           =       2.955E-04
 Gradient time:  CPU 1346.09 s  wall 222.55 s
 Geometry Optimization Parameters
   NAtoms,    NIC,     NZ,  NCons,   NDum,   NFix, NCnnct, MaxDiis
       40     289      40       0       0       0       0       0

 Cartesian Hessian Update
 Hessian Updated using BFGS Update


** GEOMETRY OPTIMIZATION IN DELOCALIZED INTERNAL COORDINATES **
   Searching for a Minimum

   Optimization Cycle:   4

                       Coordinates (Angstroms)
     ATOM                X               Y               Z
      1  C         1.2502001918    0.0805091798    0.1189028572
      2  C         1.6214092892    1.3951413148    0.2149534642
      3  C        -0.1129560571   -0.3953762662    0.3832503179
      4  H        -0.1815227269   -1.3552204318    0.9085129743
      5  C        -1.2777726292    0.1840359037   -0.0262773578
      6  H        -1.2267369696    1.0999320299   -0.6238629388
      7  C        -2.6181377730   -0.3221616778    0.2258027291
      8  C        -3.6887327890    0.3735707560   -0.2842801538
      9  H        -3.4609035407    1.2816519065   -0.8566690271
     10  C        -5.0933242067    0.0632047655   -0.1577037219
     11  H        -5.3710395265   -0.8348550990    0.4033069906
     12  C        -6.0845643712    0.8175594717   -0.6932019895
     13  H        -7.1378452223    0.5547021265   -0.5774652448
     14  H        -5.8626568288    1.7259275752   -1.2634210190
[...]
     35 H                     0.106632
     36 H                     0.101184
     37 C                    -0.211064
     38 H                     0.111773
     39 H                     0.109987
     40 H                     0.103116
  ----------------------------------------
  Sum of atomic charges =    -0.000000

 -----------------------------------------------------------------
                    Cartesian Multipole Moments
 -----------------------------------------------------------------
    Charge (ESU x 10^10)
                -0.0000
    Dipole Moment (Debye)
         X       0.7657      Y      -0.1010      Z       0.1910
       Tot       0.7956
    Quadrupole Moments (Debye-Ang)
        XX    -100.3029     XY       2.1488     YY     -98.6159
        XZ      -1.1566     YZ      -2.9489     ZZ    -104.7567
    Octopole Moments (Debye-Ang^2)
       XXX      -1.3259    XXY      -5.1295    XYY      -0.3876
       YYY       2.6868    XXZ       1.0987    XYZ      10.3540
       YYZ      -0.6863    XZZ       8.2201    YZZ       1.2562
       ZZZ       1.9511
    Hexadecapole Moments (Debye-Ang^3)
      XXXX   -5937.5701   XXXY      67.5576   XXYY   -1210.9263
      XYYY      32.5980   YYYY   -1301.9241   XXXZ       3.7711
      XXYZ     -43.1691   XYYZ      12.5295   YYYZ       1.4985
      XXZZ   -1134.9394   XYZZ      13.6373   YYZZ    -289.3222
      XZZZ       4.5149   YZZZ       0.9472   ZZZZ    -427.9352
 -----------------------------------------------------------------
 Calculating analytic gradient of the SCF energy
 Gradient of SCF Energy
            1           2           3           4           5           6
    1   0.0000166  -0.0000156  -0.0000065   0.0000007  -0.0000130  -0.0000029
    2   0.0000184  -0.0000053  -0.0000138   0.0000136  -0.0000016  -0.0000050
    3   0.0000140   0.0000078  -0.0000010   0.0000069  -0.0000046  -0.0000017
            7           8           9          10          11          12
    1   0.0000087   0.0000005  -0.0000010  -0.0000082   0.0000001   0.0000023
    2  -0.0000006   0.0000004  -0.0000047  -0.0000026  -0.0000003  -0.0000142
    3  -0.0000190   0.0000071   0.0000059   0.0000084   0.0000086   0.0000064
           13          14          15          16          17          18
    1  -0.0000015  -0.0000043   0.0000108   0.0000059   0.0000004   0.0000034
    2  -0.0000107  -0.0000088  -0.0000144  -0.0000081   0.0000036   0.0000063
    3   0.0000078   0.0000051   0.0000214   0.0000084   0.0000109   0.0000120
           19          20          21          22          23          24
    1   0.0000003  -0.0000027   0.0000045  -0.0000056  -0.0000022  -0.0000039
    2   0.0000054  -0.0000026  -0.0000038   0.0000028   0.0000259  -0.0000039
    3  -0.0000112  -0.0000098  -0.0000070  -0.0000056  -0.0000235  -0.0000182
           25          26          27          28          29          30
    1  -0.0000032  -0.0000037  -0.0000058  -0.0000063  -0.0000138  -0.0000009
    2  -0.0000117  -0.0000202   0.0000034  -0.0000035   0.0000015   0.0000061
    3  -0.0000170   0.0000130  -0.0000173   0.0000046  -0.0000055   0.0000011
           31          32          33          34          35          36
    1  -0.0000014  -0.0000029   0.0000047   0.0000048  -0.0000010   0.0000035
    2  -0.0000000   0.0000130  -0.0000095   0.0000026  -0.0000029  -0.0000050
    3  -0.0000061  -0.0000125  -0.0000071   0.0000074   0.0000015   0.0000012
           37          38          39          40
    1   0.0000120   0.0000174   0.0000081   0.0000017
    2   0.0000106   0.0000217   0.0000085   0.0000093
    3   0.0000130  -0.0000010  -0.0000004  -0.0000039
 Max gradient component =       2.594E-05
 RMS gradient           =       9.247E-06
 Gradient time:  CPU 1344.05 s  wall 221.46 s
 Geometry Optimization Parameters
   NAtoms,    NIC,     NZ,  NCons,   NDum,   NFix, NCnnct, MaxDiis
       40     289      40       0       0       0       0       0

 Cartesian Hessian Update
 Hessian Updated using BFGS Update


** GEOMETRY OPTIMIZATION IN DELOCALIZED INTERNAL COORDINATES **
   Searching for a Minimum

   Optimization Cycle:  10

                       Coordinates (Angstroms)
     ATOM                X               Y               Z
      1  C         1.2490436155    0.0902613084    0.0913897635
      2  C         1.6253315538    1.4038451568    0.1757872311
      3  C        -0.1151298519   -0.3836311734    0.3357850692
      4  H        -0.1842952364   -1.3641393351    0.8215790364
      5  C        -1.2845856142    0.2084588670   -0.0406548957
      6  H        -1.2505469415    1.1481330671   -0.5998002513
      7  C        -2.6155001435   -0.3217285401    0.2009835420
      8  C        -3.6988888407    0.3929311553   -0.2494241763
      9  H        -3.4886587676    1.3376846960   -0.7666698253
     10  C        -5.0963967093    0.0567908993   -0.1230245196
     11  H        -5.3540884438   -0.8873755449    0.3676471384
     12  C        -6.1040936090    0.8396677112   -0.5795217978
     13  H        -7.1521185466    0.5547073523   -0.4687789660
     14  H        -5.9020843110    1.7950682905   -1.0754236732
     15  C        -2.7369637204   -1.6272510366    0.9391430457
     16  H        -3.7784242913   -1.9505602747    1.0593813502
     17  H        -2.2925772189   -1.5561963214    1.9474279375
     18  H        -2.1963252605   -2.4338768461    0.4122881164
     19  C         0.6896847840    2.5232437632    0.5485479291
     20  H        -0.1725050313    2.1783026120    1.1380843664
     21  H         1.2260434841    3.2915907209    1.1329088468
     22  H         0.2869810988    3.0408484715   -0.3443009635
     23  C         3.0379864913    1.8616373050   -0.1126283759
     24  H         3.3059508063    2.6723340605    0.5897930725
     25  H         3.0582758171    2.3364175651   -1.1177246571
     26  C         4.0748202106    0.7431802135   -0.0576913903
     27  H         5.0372290475    1.0875744430   -0.4725901188
     28  H         4.2704781169    0.4701836662    0.9947810357
     29  C         3.5552226815   -0.4655357058   -0.8262493174
     30  H         4.3108596036   -1.2712985275   -0.8675492375
     31  H         3.3549535188   -0.1656612215   -1.8733234935
     32  C         2.2563579959   -1.0373212104   -0.2207513300
     33  C         1.6651285961   -2.0210012052   -1.2511442967
     34  H         0.7900394200   -2.5641610955   -0.8592323429
     35  H         1.3501476282   -1.4894189402   -2.1653210226
     36  H         2.4277244723   -2.7691730144   -1.5331216914
     37  C         2.5812633927   -1.8122016190    1.0751394306
     38  H         3.0674088320   -1.1646049340    1.8234912365
     39  H         1.6690011881   -2.2256508489    1.5376532403
     40  H         3.2564435307   -2.6591889194    0.8558872078
   Point Group: c1    Number of degrees of freedom:   114


   Energy is   -623.457617030

 Hessian Updated using BFGS Update

110 Hessian modes will be used to form the next step
  Hessian Eigenvalues:
     0.001837    0.002108    0.002330    0.003139    0.005282    0.006417
     0.009021    0.011473    0.013368    0.013623    0.014266    0.015722
     0.019741    0.020032    0.020455    0.021365    0.022580    0.024581
     0.027286    0.027407    0.027434    0.029994    0.033199    0.042473
     0.047487    0.048174    0.051756    0.053271    0.053851    0.054724
     0.055185    0.056382    0.058117    0.068473    0.068984    0.069765
     0.071502    0.071835    0.078676    0.078966    0.083606    0.096492
     0.099331    0.121800    0.147046    0.154037    0.155842    0.157240
     0.159817    0.159860    0.159921    0.159992    0.159998    0.159999
     0.160000    0.160121    0.160694    0.160817    0.162160    0.166128
     0.188789    0.195530    0.219970    0.220584    0.225924    0.228605
     0.249150    0.251180    0.252324    0.260255    0.263215    0.269598
     0.274853    0.276425    0.290200    0.293520    0.303131    0.306161
     0.323575    0.327510    0.328169    0.328568    0.329121    0.330126
     0.330212    0.330770    0.331126    0.331314    0.331373    0.331523
     0.333141    0.333623    0.335338    0.335757    0.338178    0.338509
     0.338720    0.340354    0.340945    0.341448    0.342671    0.345509
     0.350952    0.369832    0.386245    0.415478    0.496376    0.509778
     0.528185    0.552139

 Minimum Search - Taking Simple RFO Step
 Searching for Lamda that Minimizes Along All modes
 Value Taken    Lamda =   0.00000000
 Step Taken.  Stepsize is  0.005936

                             Maximum     Tolerance    Cnvgd?
         Gradient           0.000057      0.000300     YES
         Displacement       0.001915      0.001200      NO
         Energy change     -0.000000      0.000001     YES

 Final energy is   -623.457617030094     


 ******************************
 **  OPTIMIZATION CONVERGED  **
 ******************************

                       Coordinates (Angstroms)
     ATOM                X               Y               Z
      1  C         1.2490436155    0.0902613084    0.0913897635
      2  C         1.6253315538    1.4038451568    0.1757872311
      3  C        -0.1151298519   -0.3836311734    0.3357850692
      4  H        -0.1842952364   -1.3641393351    0.8215790364
      5  C        -1.2845856142    0.2084588670   -0.0406548957
      6  H        -1.2505469415    1.1481330671   -0.5998002513
      7  C        -2.6155001435   -0.3217285401    0.2009835420
      8  C        -3.6988888407    0.3929311553   -0.2494241763
      9  H        -3.4886587676    1.3376846960   -0.7666698253
     10  C        -5.0963967093    0.0567908993   -0.1230245196
     11  H        -5.3540884438   -0.8873755449    0.3676471384
     12  C        -6.1040936090    0.8396677112   -0.5795217978
     13  H        -7.1521185466    0.5547073523   -0.4687789660
     14  H        -5.9020843110    1.7950682905   -1.0754236732
     15  C        -2.7369637204   -1.6272510366    0.9391430457
     16  H        -3.7784242913   -1.9505602747    1.0593813502
     17  H        -2.2925772189   -1.5561963214    1.9474279375
     18  H        -2.1963252605   -2.4338768461    0.4122881164
     19  C         0.6896847840    2.5232437632    0.5485479291
     20  H        -0.1725050313    2.1783026120    1.1380843664
     21  H         1.2260434841    3.2915907209    1.1329088468
     22  H         0.2869810988    3.0408484715   -0.3443009635
     23  C         3.0379864913    1.8616373050   -0.1126283759
     24  H         3.3059508063    2.6723340605    0.5897930725
     25  H         3.0582758171    2.3364175651   -1.1177246571
     26  C         4.0748202106    0.7431802135   -0.0576913903
     27  H         5.0372290475    1.0875744430   -0.4725901188
     28  H         4.2704781169    0.4701836662    0.9947810357
     29  C         3.5552226815   -0.4655357058   -0.8262493174
     30  H         4.3108596036   -1.2712985275   -0.8675492375
     31  H         3.3549535188   -0.1656612215   -1.8733234935
     32  C         2.2563579959   -1.0373212104   -0.2207513300
     33  C         1.6651285961   -2.0210012052   -1.2511442967
     34  H         0.7900394200   -2.5641610955   -0.8592323429
     35  H         1.3501476282   -1.4894189402   -2.1653210226
     36  H         2.4277244723   -2.7691730144   -1.5331216914
     37  C         2.5812633927   -1.8122016190    1.0751394306
     38  H         3.0674088320   -1.1646049340    1.8234912365
     39  H         1.6690011881   -2.2256508489    1.5376532403
     40  H         3.2564435307   -2.6591889194    0.8558872078

Z-matrix Print:
$molecule
0 1
C 
C  1 1.369021
C  1 1.464675 2 123.790568
H  3 1.096438 1 114.962278 2 -144.497323 0
C  3 1.363783 1 127.744560 2 39.879506 0
H  5 1.093979 3 119.164261 1 0.437976 0
C  5 1.452867 3 125.534202 1 178.469635 0
C  7 1.373804 5 118.557886 3 -179.618068 0
H  8 1.097406 7 116.827078 5 -0.356404 0
C  8 1.442912 7 127.870808 5 179.877242 0
H  10 1.094812 8 117.913223 7 -1.480716 0
C  10 1.355263 8 123.784357 7 178.720482 0
H  12 1.091706 10 121.927286 8 179.912206 0
H  12 1.095224 10 121.283886 8 -0.363820 0
C  7 1.504667 5 118.175117 3 0.622369 0
H  15 1.097099 7 112.711309 5 -179.179778 0
H  15 1.104159 7 111.079277 5 60.092525 0
H  15 1.104768 7 111.102664 5 -58.380221 0
C  2 1.505802 1 123.901153 3 0.877088 0
H  19 1.099959 2 112.743158 1 24.065570 0
H  19 1.104317 2 110.269070 1 145.346769 0
H  19 1.107819 2 111.943445 1 -96.734247 0
C  2 1.512730 1 122.363858 3 -178.649213 0
H  23 1.105636 2 109.092800 1 -142.615754 0
H  23 1.111776 2 108.580833 1 103.615187 0
C  23 1.526102 2 113.941290 1 -18.646124 0
H  26 1.103168 23 110.510316 2 168.449905 0
H  26 1.104766 23 109.616334 2 -74.693714 0
C  26 1.523698 23 109.362322 2 46.193108 0
H  29 1.105417 26 111.344572 23 176.029607 0
H  29 1.107428 26 108.891373 23 58.777740 0
C  29 1.542924 26 112.525922 23 -61.694574 0
C  32 1.542364 29 107.269784 26 167.125972 0
H  33 1.101998 32 112.405549 29 173.730445 0
H  33 1.103409 32 110.833800 29 -65.581844 0
H  33 1.104909 32 109.741838 29 53.825572 0
C  32 1.544453 29 109.761993 26 -74.897600 0
H  37 1.102610 32 111.565017 29 59.307402 0
H  37 1.103214 32 111.459322 29 179.449691 0
H  37 1.105137 32 110.278372 29 -61.196470 0
$end

 
 --------------------------------------------------------------
 
                    Orbital Energies (a.u.)
 --------------------------------------------------------------
 
 Alpha MOs
 -- Occupied --
-10.207 -10.205 -10.197 -10.194 -10.191 -10.189 -10.188 -10.187
-10.185 -10.182 -10.181 -10.181 -10.179 -10.175 -10.173 -10.170
 -0.832  -0.806  -0.766  -0.762  -0.740  -0.702  -0.665  -0.656
 -0.654  -0.648  -0.598  -0.564  -0.544  -0.520  -0.501  -0.478
 -0.460  -0.443  -0.437  -0.422  -0.416  -0.402  -0.397  -0.393
 -0.388  -0.378  -0.375  -0.369  -0.367  -0.359  -0.347  -0.344
 -0.335  -0.327  -0.324  -0.318  -0.313  -0.304  -0.295  -0.288
 -0.275  -0.266  -0.221  -0.178
 -- Virtual --
 -0.076  -0.009   0.030   0.037   0.043   0.057   0.063   0.066
  0.073   0.078   0.082   0.092   0.096   0.098   0.111   0.116
  0.124   0.133   0.136   0.141   0.145   0.152   0.158   0.170
  0.176   0.178   0.185   0.189   0.199   0.206   0.216   0.222
  0.227   0.241   0.254   0.258   0.266   0.298   0.309   0.341
  0.347   0.361   0.371   0.378   0.398   0.421   0.432   0.441
  0.451   0.456   0.458   0.470   0.475   0.478   0.485   0.501
  0.513   0.515   0.519   0.530   0.541   0.558   0.577   0.589
  0.594   0.608   0.616   0.618   0.622   0.634   0.639   0.641
  0.648   0.656   0.664   0.666   0.668   0.677   0.683   0.688
  0.689   0.697   0.700   0.705   0.707   0.710   0.713   0.719
  0.723   0.727   0.728   0.734   0.738   0.741   0.746   0.753
  0.760   0.768   0.775   0.778   0.789   0.796   0.801   0.812
  0.835   0.837   0.866   0.876   0.891   0.892   0.910   0.932
  0.941   0.996   1.007   1.030   1.052   1.078   1.107   1.130
  1.143   1.173   1.187   1.202   1.218   1.268   1.275   1.327
  1.338   1.383   1.391   1.504
 --------------------------------------------------------------
 
          Ground-State Mulliken Net Atomic Charges

     Atom                 Charge (a.u.)
  ----------------------------------------
      1 C                     0.070784
      2 C                    -0.144148
      3 C                    -0.103795
      4 H                     0.087530
      5 C                    -0.110919
      6 H                     0.072070
      7 C                    -0.054388
      8 C                    -0.137964
      9 H                     0.065992
     10 C                    -0.064974
     11 H                     0.083226
     12 C                    -0.217541
     13 H                     0.104627
     14 H                     0.102232
     15 C                    -0.246925
     16 H                     0.119499
     17 H                     0.126536
     18 H                     0.125621
     19 C                    -0.261831
     20 H                     0.137084
     21 H                     0.102422
     22 H                     0.125305
     23 C                    -0.162240
     24 H                     0.095954
     25 H                     0.108232
     26 C                    -0.150028
     27 H                     0.094168
     28 H                     0.101340
     29 C                    -0.119035
     30 H                     0.088780
     31 H                     0.092333
     32 C                    -0.371484
     33 C                    -0.183055
     34 H                     0.102964
     35 H                     0.106632
     36 H                     0.101184
     37 C                    -0.211064
     38 H                     0.111773
     39 H                     0.109987
     40 H                     0.103116
  ----------------------------------------
  Sum of atomic charges =    -0.000000

 -----------------------------------------------------------------
                    Cartesian Multipole Moments
 -----------------------------------------------------------------
    Charge (ESU x 10^10)
                -0.0000
    Dipole Moment (Debye)
         X       0.7657      Y      -0.1010      Z       0.1910
       Tot       0.7956
    Quadrupole Moments (Debye-Ang)
        XX    -100.3029     XY       2.1488     YY     -98.6159
        XZ      -1.1566     YZ      -2.9489     ZZ    -104.7567
    Octopole Moments (Debye-Ang^2)
       XXX      -1.3259    XXY      -5.1295    XYY      -0.3876
       YYY       2.6868    XXZ       1.0987    XYZ      10.3540
       YYZ      -0.6863    XZZ       8.2201    YZZ       1.2562
       ZZZ       1.9511
    Hexadecapole Moments (Debye-Ang^3)
      XXXX   -5937.5701   XXXY      67.5576   XXYY   -1210.9263
      XYYY      32.5980   YYYY   -1301.9241   XXXZ       3.7711
      XXYZ     -43.1691   XYYZ      12.5295   YYYZ       1.4985
      XXZZ   -1134.9394   XYZZ      13.6373   YYZZ    -289.3222
      XZZZ       4.5149   YZZZ       0.9472   ZZZZ    -427.9352
 -----------------------------------------------------------------
Archival summary:
1\1\cub-0-26.local\OPT\ProcedureUnspecified\BasisUnspecified\1624\c295_lal\MonNov2617:44:302018MonNov2617:44:302018\0\\#,OPT,ProcedureUnspecified,BasisUnspecified,\\0,1\C\C,1,1.36902\C,1,1.46467,2,123.791\H,3,1.09644,1,114.962,2,-144.497,0\C,3,1.36378,1,127.745,2,39.8795,0\H,5,1.09398,3,119.164,1,0.437976,0\C,5,1.45287,3,125.534,1,178.47,0\C,7,1.3738,5,118.558,3,-179.618,0\H,8,1.09741,7,116.827,5,-0.356404,0\C,8,1.44291,7,127.871,5,179.877,0\H,10,1.09481,8,117.913,7,-1.48072,0\C,10,1.35526,8,123.784,7,178.72,0\H,12,1.09171,10,121.927,8,179.912,0\H,12,1.09522,10,121.284,8,-0.36382,0\C,7,1.50467,5,118.175,3,0.622369,0\H,15,1.0971,7,112.711,5,-179.18,0\H,15,1.10416,7,111.079,5,60.0925,0\H,15,1.10477,7,111.103,5,-58.3802,0\C,2,1.5058,1,123.901,3,0.877088,0\H,19,1.09996,2,112.743,1,24.0656,0\H,19,1.10432,2,110.269,1,145.347,0\H,19,1.10782,2,111.943,1,-96.7342,0\C,2,1.51273,1,122.364,3,-178.649,0\H,23,1.10564,2,109.093,1,-142.616,0\H,23,1.11178,2,108.581,1,103.615,0\C,23,1.5261,2,113.941,1,-18.6461,0\H,26,1.10317,23,110.51,2,168.45,0\H,26,1.10477,23,109.616,2,-74.6937,0\C,26,1.5237,23,109.362,2,46.1931,0\H,29,1.10542,26,111.345,23,176.03,0\H,29,1.10743,26,108.891,23,58.7777,0\C,29,1.54292,26,112.526,23,-61.6946,0\C,32,1.54236,29,107.27,26,167.126,0\H,33,1.102,32,112.406,29,173.73,0\H,33,1.10341,32,110.834,29,-65.5818,0\H,33,1.10491,32,109.742,29,53.8256,0\C,32,1.54445,29,109.762,26,-74.8976,0\H,37,1.10261,32,111.565,29,59.3074,0\H,37,1.10321,32,111.459,29,179.45,0\H,37,1.10514,32,110.278,29,-61.1965,0\\\@

 Total job time:  9014.85s(wall), 67711.11s(cpu) 
 Mon Nov 26 17:44:30 2018

        *************************************************************
        *                                                           *
        *  Thank you very much for using Q-Chem.  Have a nice day.  *
        *                                                           *
        *************************************************************


