
Running Job 1 of 2 int_ts_sto3g_gga2.in
qchem int_ts_sto3g_gga2.in_2531.0 /scr/c295_lal/157382/qchem2531/ 1
/usr/software/qchem_511/exe/qcprog.exe_s int_ts_sto3g_gga2.in_2531.0 /scr/c295_lal/157382/qchem2531/
Check license passed

                  Welcome to Q-Chem
     A Quantum Leap Into The Future Of Chemistry


 Q-Chem 5.1, Q-Chem, Inc., Pleasanton, CA (2018)

 Yihan Shao,  Zhengting Gan,  E. Epifanovsky,  A. T. B. Gilbert,  M. Wormit,  
 J. Kussmann,  A. W. Lange,  A. Behn,  Jia Deng,  Xintian Feng,  D. Ghosh,  
 M. Goldey,  P. R. Horn,  L. D. Jacobson,  I. Kaliman,  T. Kus,  A. Landau,  
 Jie Liu,  E. I. Proynov,  R. M. Richard,  R. P. Steele,  E. J. Sundstrom,  
 H. L. Woodcock III,  P. M. Zimmerman,  D. Zuev,  B. Albrecht,  E. Alguire,  
 S. A. Baeppler,  D. Barton,  Z. Benda,  Y. A. Bernard,  E. J. Berquist,  
 K. B. Bravaya,  H. Burton,  D. Casanova,  Chun-Min Chang,  Yunqing Chen,  
 A. Chien,  K. D. Closser,  M. P. Coons,  S. Coriani,  S. Dasgupta,  
 A. L. Dempwolff,  M. Diedenhofen,  Hainam Do,  R. G. Edgar,  Po-Tung Fang,  
 S. Faraji,  S. Fatehi,  Qingguo Feng,  K. D. Fenk,  J. Fosso-Tande,  
 Qinghui Ge,  A. Ghysels,  G. Gidofalvi,  J. Gomes,  J. Gonthier,  A. Gunina,  
 D. Hait,  M. W. D. Hanson-Heine,  P. H. P. Harbach,  A. W. Hauser,  
 J. E. Herr,  E. G. Hohenstein,  Z. C. Holden,  Kerwin Hui,  B. C. Huynh,  
 T.-C. Jagau,  Hyunjun Ji,  B. Kaduk,  K. Khistyaev,  Jaehoon Kim,  
 P. Klunzinger,  K. Koh,  D. Kosenkov,  L. Koulias,  T. Kowalczyk,  
 C. M. Krauter,  A. Kunitsa,  Ka Un Lao,  A. Laurent,  K. V. Lawler,  
 Joonho Lee,  D. Lefrancois,  S. Lehtola,  D. S. Levine,  Yi-Pei Li,  
 You-Sheng Lin,  Fenglai Liu,  E. Livshits,  A. Luenser,  P. Manohar,  
 E. Mansoor,  S. F. Manzer,  Shan-Ping Mao,  Yuezhi Mao,  N. Mardirossian,  
 A. V. Marenich,  T. Markovich,  L. A. Martinez-Martinez,  S. A. Maurer,  
 N. J. Mayhall,  S. C. McKenzie,  J.-M. Mewes,  A. F. Morrison,  
 J. W. Mullinax,  K. Nanda,  T. S. Nguyen-Beck,  R. Olivares-Amaya,  
 J. A. Parkhill,  T. M. Perrine,  F. Plasser,  P. Pokhilko,  S. Prager,  
 A. Prociuk,  E. Ramos,  D. R. Rehn,  F. Rob,  M. Schneider,  N. Sergueev,  
 S. M. Sharada,  S. Sharma,  D. W. Small,  T. Stauch,  T. Stein,  
 Yu-Chuan Su,  A. J. W. Thom,  A. Tkatchenko,  T. Tsuchimochi,  N. M. Tubman,  
 L. Vogt,  M. L. Vidal,  O. Vydrov,  M. A. Watson,  J. Wenzel,  
 M. de Wergifosse,  T. A. Wesolowski,  A. White,  J. Witte,  A. Yamada,  
 Jun Yang,  K. Yao,  S. Yeganeh,  S. R. Yost,  Zhi-Qiang You,  A. Zech,  
 Igor Ying Zhang,  Xing Zhang,  Yan Zhao,  Ying Zhu,  B. R. Brooks,  
 G. K. L. Chan,  C. J. Cramer,  M. S. Gordon,  W. J. Hehre,  A. Klamt,  
 M. W. Schmidt,  C. D. Sherrill,  D. G. Truhlar,  A. Aspuru-Guzik,  R. Baer,  
 A. T. Bell,  N. A. Besley,  Jeng-Da Chai,  A. E. DePrince, III,  
 R. A. DiStasio Jr.,  A. Dreuw,  B. D. Dunietz,  T. R. Furlani,  
 Chao-Ping Hsu,  Yousung Jung,  Jing Kong,  D. S. Lambrecht,  WanZhen Liang,  
 C. Ochsenfeld,  V. A. Rassolov,  L. V. Slipchenko,  J. E. Subotnik,  
 T. Van Voorhis,  J. M. Herbert,  A. I. Krylov,  P. M. W. Gill,  M. Head-Gordon

 Contributors to earlier versions of Q-Chem not listed above: 
 R. D. Adamson,  B. Austin,  J. Baker,  G. J. O. Beran,  K. Brandhorst,  
 S. T. Brown,  E. F. C. Byrd,  A. K. Chakraborty,  C.-L. Cheng,  
 Siu Hung Chien,  D. M. Chipman,  D. L. Crittenden,  H. Dachsel,  
 R. J. Doerksen,  A. D. Dutoi,  L. Fusti-Molnar,  W. A. Goddard III,  
 A. Golubeva-Zadorozhnaya,  S. R. Gwaltney,  G. Hawkins,  A. Heyden,  
 S. Hirata,  G. Kedziora,  F. J. Keil,  C. Kelley,  Jihan Kim,  R. A. King,  
 R. Z. Khaliullin,  P. P. Korambath,  W. Kurlancheek,  A. M. Lee,  M. S. Lee,  
 S. V. Levchenko,  Ching Yeh Lin,  D. Liotard,  R. C. Lochan,  I. Lotan,  
 P. E. Maslen,  N. Nair,  D. P. O'Neill,  D. Neuhauser,  E. Neuscamman,  
 C. M. Oana,  R. Olson,  B. Peters,  R. Peverati,  P. A. Pieniazek,  
 Y. M. Rhee,  J. Ritchie,  M. A. Rohrdanz,  E. Rosta,  N. J. Russ,  
 H. F. Schaefer III,  N. E. Schultz,  N. Shenvi,  A. C. Simmonett,  A. Sodt,  
 D. Stuck,  K. S. Thanthiriwatte,  V. Vanovschi,  Tao Wang,  A. Warshel,  
 C. F. Williams,  Q. Wu,  X. Xu,  W. Zhang

 Please cite Q-Chem as follows:
 Y. Shao et al., Mol. Phys. 113, 184-215 (2015)
 DOI: 10.1080/00268976.2014.952696

 Q-Chem 5.1.1 for Intel X86 EM64T Linux

 Parts of Q-Chem use Armadillo 8.300.2 (Tropical Shenanigans).
 http://arma.sourceforge.net/

 Q-Chem begins on Wed Nov 28 11:45:15 2018  

Host: cub-0-16.local
0

     Scratch files written to /scr/c295_lal/157382/qchem2531//
 Aug318 |scratch|qcdevops|jenkins|workspace|build_RNUM -1
Processing $rem in /usr/software/qchem_511/config/preferences.
 MEM_TOTAL  2000 
Input Ideriv = 2
Curr. Ideriv = -1
Max.  Ideriv = 2

Checking the input file for inconsistencies... 	...done.

--------------------------------------------------------------
User input:
--------------------------------------------------------------
$molecule
2 5
Fe        -1.43864       -2.96430        2.23396
O         -1.74302       -1.64056        1.45548
O         -1.44035       -0.24074        1.79786
H          2.37381        2.77406       -0.19332
H          2.59922        2.99747        1.57672
C          2.03387        2.43600        0.80611
H          0.96266        2.69611        0.91446
H          4.32172        1.78548       -0.80961
H          4.32790        1.34859        1.73210
C          4.51529        0.77639       -0.38784
C          2.29995        0.88197        1.01616
C          3.86964        0.62416        1.02635
H          5.61614        0.63915       -0.32621
H         -2.64402       -1.21071       -0.74944
H          2.31222        0.94976        3.22171
C          1.75441        0.40891        2.43133
C          1.60333        0.05150       -0.15164
H          4.18367       -0.15340       -2.41372
H          0.67736        0.61901        2.56942
C          3.92705       -0.31822       -1.33605
C          0.20104       -0.13078       -0.27835
C         -2.78969       -0.21542       -1.22074
C          2.41459       -0.54757       -1.23729
H         -2.32017       -0.23438       -2.23065
H          1.46990       -0.73527       -3.18761
H         -3.87674       -0.05195       -1.35786
H          4.07289       -0.39734        1.41510
C          1.83517       -1.41453       -2.37659
H          0.99493       -2.06445       -2.05885
C         -0.92392        0.57107        0.49634
H          1.92941       -0.67748        2.56934
H          4.38088       -1.32119       -1.09010
C         -2.17486        0.89390       -0.33943
H          2.64108       -2.04058       -2.81356
H         -4.46353        2.01322       -1.57518
C         -2.72356        2.18322       -0.19791
C         -3.91835        2.68518       -0.88245
H         -2.21187        2.90153        0.47954
C         -4.38141        3.97974       -0.68279
H         -5.29074        4.35112       -1.20202
H         -3.86437        4.68745        0.00024
H         -0.16697       -0.77545       -1.10410
H         -0.55501        1.47752        1.03715

$end

$rem
JOBTYPE         freq
METHOD        BLYP
BASIS           STO-3G
SCF_MAX_CYCLES  250
SYMMETRY        false
SYM_IGNORE      true
$end

--------------------------------------------------------------
 ----------------------------------------------------------------
             Standard Nuclear Orientation (Angstroms)
    I     Atom           X                Y                Z
 ----------------------------------------------------------------
    1      Fe     -1.4386400000    -2.9643000000     2.2339600000
    2      O      -1.7430200000    -1.6405600000     1.4554800000
    3      O      -1.4403500000    -0.2407400000     1.7978600000
    4      H       2.3738100000     2.7740600000    -0.1933200000
    5      H       2.5992200000     2.9974700000     1.5767200000
    6      C       2.0338700000     2.4360000000     0.8061100000
    7      H       0.9626600000     2.6961100000     0.9144600000
    8      H       4.3217200000     1.7854800000    -0.8096100000
    9      H       4.3279000000     1.3485900000     1.7321000000
   10      C       4.5152900000     0.7763900000    -0.3878400000
   11      C       2.2999500000     0.8819700000     1.0161600000
   12      C       3.8696400000     0.6241600000     1.0263500000
   13      H       5.6161400000     0.6391500000    -0.3262100000
   14      H      -2.6440200000    -1.2107100000    -0.7494400000
   15      H       2.3122200000     0.9497600000     3.2217100000
   16      C       1.7544100000     0.4089100000     2.4313300000
   17      C       1.6033300000     0.0515000000    -0.1516400000
   18      H       4.1836700000    -0.1534000000    -2.4137200000
   19      H       0.6773600000     0.6190100000     2.5694200000
   20      C       3.9270500000    -0.3182200000    -1.3360500000
   21      C       0.2010400000    -0.1307800000    -0.2783500000
   22      C      -2.7896900000    -0.2154200000    -1.2207400000
   23      C       2.4145900000    -0.5475700000    -1.2372900000
   24      H      -2.3201700000    -0.2343800000    -2.2306500000
   25      H       1.4699000000    -0.7352700000    -3.1876100000
   26      H      -3.8767400000    -0.0519500000    -1.3578600000
   27      H       4.0728900000    -0.3973400000     1.4151000000
   28      C       1.8351700000    -1.4145300000    -2.3765900000
   29      H       0.9949300000    -2.0644500000    -2.0588500000
   30      C      -0.9239200000     0.5710700000     0.4963400000
   31      H       1.9294100000    -0.6774800000     2.5693400000
   32      H       4.3808800000    -1.3211900000    -1.0901000000
   33      C      -2.1748600000     0.8939000000    -0.3394300000
   34      H       2.6410800000    -2.0405800000    -2.8135600000
   35      H      -4.4635300000     2.0132200000    -1.5751800000
   36      C      -2.7235600000     2.1832200000    -0.1979100000
   37      C      -3.9183500000     2.6851800000    -0.8824500000
   38      H      -2.2118700000     2.9015300000     0.4795400000
   39      C      -4.3814100000     3.9797400000    -0.6827900000
   40      H      -5.2907400000     4.3511200000    -1.2020200000
   41      H      -3.8643700000     4.6874500000     0.0002400000
   42      H      -0.1669700000    -0.7754500000    -1.1041000000
   43      H      -0.5550100000     1.4775200000     1.0371500000
 ----------------------------------------------------------------
 Nuclear Repulsion Energy =  1729.6797781022 hartrees
 There are       82 alpha and       78 beta electrons
 Requested basis set is STO-3G
 There are 65 shells and 132 basis functions

 Total QAlloc Memory Limit   2000 MB
 Mega-Array Size       204 MB
 MEM_STATIC part       192 MB
 A cutoff of  1.0D-11 yielded   1578 shell pairs
 There are      7091 function pairs (      7179 Cartesian)
 
 -------------------------------------------------------
 OpenMP Integral Computing Module                       
 Release: version 1.0, May 2013, Q-Chem Inc. Pittsburgh 
 -------------------------------------------------------
 Integral Job Info:
 Integral job number is                      11
 Integral operator is                         1
 short-range coefficients                     0
 long-range coefficients              100000000
 Omega coefficients                           0
 if combine SR and LR in K                    0
 Integral screening is                        0
 Integral computing path is                   2
 max size of driver memory is            800000
 size of driver memory is                593474
 size of scratch memory is             10861360
 max col of scratch BK array               1296
 max len of scratch array in speh3          155
 max len of scratch index in speh4           18
 max int batch size is                      520
 min int batch size is                       52
 fixed nKL is                                52
 max L of basis functions is                  2
 order of int derivative is                   0
 number of shells is                         65
 number of basis is                         133
 number of cartesian basis is               133
 number of contracted shell pairs          1578
 number of primitive shell pairs           8177
 maxK2 (contraction) of shell pair            9
 max number of K2 of shell pair               1
 max number of CS2 of shell pair            229
 max number of PS2 of shell pair            864
 mem total for path MDJ                  533918
 -------------------------------------------------------
 Smallest overlap matrix eigenvalue = 2.07E-01
 Guess from superposition of atomic densities
 Warning:  Energy on first SCF cycle will be non-variational
 SAD guess density has 162.000000 electrons

 -----------------------------------------------------------------------
  General SCF calculation program by
  Eric Jon Sundstrom, Paul Horn, Yuezhi Mao, Dmitri Zuev, Alec White,
  David Stuck, Shaama M.S., Shane Yost, Joonho Lee, David Small,
  Daniel Levine, Susi Lehtola, Hugh Burton, Evgeny Epifanovsky
 -----------------------------------------------------------------------
 Exchange:  B88      Correlation:  LYP
 Using SG-1 standard quadrature grid
 using 12 threads for integral computing
 -------------------------------------------------------
 OpenMP Integral computing Module                
 Release: version 1.0, May 2013, Q-Chem Inc. Pittsburgh 
 -------------------------------------------------------
 -------------------------------------------------------
 OpenMP BLAS3 based DFT computing Module                
 Release: version 1.0, May 2013, Q-Chem Inc. Pittsburgh 
 -------------------------------------------------------
 A unrestricted SCF calculation will be
 performed using DIIS
 SCF converges when DIIS error is below 1.0e-08
 ---------------------------------------
  Cycle       Energy         DIIS error
 ---------------------------------------
    1   -2011.7855469238      3.86e-02  
    2   -2013.2154166367      8.81e-03  
    3   -1995.8893982345      2.24e-02  
    4   -1999.3163376407      1.73e-02  
    5   -2012.2472622902      8.99e-03  
    6   -2005.5052048860      2.13e-02  
    7   -2006.1605126596      2.00e-02  
    8   -2006.6010574571      1.87e-02  
    9   -2009.9515153244      1.44e-02  
   10   -2010.5375174743      1.47e-02  
   11   -2010.2987881279      1.48e-02  
   12   -2011.6113948887      1.21e-02  
   13   -2008.7802386513      1.80e-02  
   14   -2004.8895763514      1.93e-02  
   15   -2004.6151166351      1.90e-02  
   16   -2004.6624779046      1.90e-02  
   17   -2004.5569456404      1.90e-02  
   18   -2004.5335622275      2.06e-02  
   19   -2000.5091815937      2.33e-02  
   20   -2002.5610357835      1.93e-02  
   21   -1978.9145031037      3.18e-02  
   22   -2007.7496946562      2.32e-02  
   23   -2008.2851822473      2.20e-02  
   24   -2007.9313986129      2.26e-02  
   25   -2006.2627711631      2.33e-02  
   26   -2007.9738689929      2.26e-02  
   27   -2007.8559111534      2.28e-02  
   28   -2004.2886203150      2.75e-02  
   29   -2006.8491633207      2.49e-02  
   30   -2006.3492787789      2.53e-02  
   31   -2007.0469514181      2.46e-02  
   32   -2006.9252159326      2.46e-02  
   33   -2005.8452251237      2.44e-02  
   34   -2005.5768956053      2.46e-02  
   35   -1991.9759423303      2.58e-02  
   36   -1978.3035209221      2.50e-02  
   37   -1956.3402910433      3.92e-02  
   38   -1996.8901776157      2.19e-02  
   39   -2013.3462207938      5.21e-03  
   40   -2011.4127353487      1.21e-02  
   41   -2013.6989498582      4.38e-03  
   42   -2013.9336699299      2.07e-03  
   43   -2013.9611199882      1.50e-03  
   44   -2013.9731291239      9.07e-04  
   45   -2013.9699667107      1.00e-03  
   46   -2013.9889376149      3.22e-04  
   47   -2013.9897045707      2.63e-04  
   48   -2013.9902653583      1.40e-04  
   49   -2013.9905850328      5.45e-05  
   50   -2013.9906126221      3.24e-05  
   51   -2013.9906233258      2.11e-05  
   52   -2013.9906335976      6.23e-06  
   53   -2013.9906342416      4.81e-06  
   54   -2013.9906349750      1.11e-06  
   55   -2013.9906349955      1.11e-06  
   56   -2013.9906350156      6.62e-07  
   57   -2013.9906350244      1.68e-07  
   58   -2013.9906350248      9.33e-08  
   59   -2013.9906350248      8.55e-08  
   60   -2013.9906350249      3.55e-08  
   61   -2013.9906350249      1.01e-08  
   62   -2013.9906350249      1.17e-08  
   63   -2013.9906350249      4.47e-09  Convergence criterion met
 ---------------------------------------
 SCF time:   CPU 458.74s  wall 39.00s 
<S^2> =          6.382592902
 SCF   energy in the final basis set =    -2013.9906350249
 Total energy in the final basis set =    -2013.9906350249
 
 --------------------------------------------------------------
 
                    Orbital Energies (a.u.)
 --------------------------------------------------------------
 
 Alpha MOs
 -- Occupied --
******* -29.654 -26.209 -26.207 -26.203 -18.970 -18.952 -10.119
-10.119 -10.091 -10.075 -10.052 -10.043 -10.041 -10.036 -10.031
-10.022 -10.017 -10.017  -9.988  -9.980  -9.979  -9.977  -3.842
 -2.684  -2.680  -2.672  -1.265  -1.078  -1.007  -0.968  -0.936
 -0.919  -0.901  -0.872  -0.853  -0.834  -0.816  -0.804  -0.788
 -0.743  -0.736  -0.725  -0.703  -0.691  -0.677  -0.651  -0.642
 -0.635  -0.626  -0.616  -0.607  -0.603  -0.592  -0.583  -0.579
 -0.578  -0.571  -0.566  -0.564  -0.559  -0.555  -0.549  -0.541
 -0.537  -0.531  -0.516  -0.513  -0.510  -0.510  -0.506  -0.500
 -0.499  -0.488  -0.481  -0.478  -0.470  -0.463  -0.455  -0.450
 -0.418  -0.397
 -- Virtual --
 -0.377  -0.372  -0.293  -0.259  -0.249  -0.224  -0.213  -0.146
 -0.118  -0.045  -0.027  -0.021   0.008   0.017   0.024   0.027
  0.053   0.057   0.066   0.074   0.080   0.087   0.089   0.102
  0.113   0.120   0.123   0.125   0.135   0.140   0.147   0.150
  0.164   0.169   0.179   0.182   0.186   0.193   0.203   0.208
  0.220   0.226   0.236   0.240   0.248   0.257   0.267   0.284
  0.329   0.370
 
 Beta MOs
 -- Occupied --
******* -29.617 -26.177 -26.176 -26.176 -18.970 -18.954 -10.119
-10.118 -10.091 -10.075 -10.054 -10.043 -10.041 -10.036 -10.031
-10.022 -10.019 -10.017  -9.988  -9.980  -9.979  -9.977  -3.646
 -2.500  -2.477  -2.473  -1.266  -1.078  -1.006  -0.970  -0.937
 -0.919  -0.903  -0.872  -0.853  -0.836  -0.816  -0.804  -0.788
 -0.741  -0.737  -0.724  -0.701  -0.688  -0.677  -0.650  -0.640
 -0.635  -0.622  -0.616  -0.606  -0.594  -0.592  -0.579  -0.578
 -0.577  -0.570  -0.566  -0.564  -0.558  -0.551  -0.542  -0.541
 -0.532  -0.523  -0.515  -0.512  -0.505  -0.500  -0.483  -0.478
 -0.470  -0.462  -0.455  -0.442  -0.428  -0.402
 -- Virtual --
 -0.372  -0.338  -0.309  -0.309  -0.307  -0.303  -0.278  -0.267
 -0.231  -0.223  -0.198  -0.149  -0.121  -0.029  -0.020  -0.013
  0.008   0.017   0.024   0.026   0.052   0.057   0.066   0.073
  0.080   0.086   0.089   0.101   0.113   0.119   0.123   0.124
  0.134   0.140   0.146   0.150   0.164   0.169   0.179   0.182
  0.186   0.193   0.203   0.208   0.220   0.225   0.235   0.241
  0.248   0.256   0.267   0.284   0.327   0.367
 --------------------------------------------------------------
 
          Ground-State Mulliken Net Atomic Charges

     Atom                 Charge (a.u.)    Spin (a.u.)
  --------------------------------------------------------
      1 Fe                    0.639366       4.378793
      2 O                    -0.190251      -0.121032
      3 O                     0.048352      -0.014819
      4 H                     0.089407      -0.000014
      5 H                     0.108222      -0.000037
      6 C                    -0.212889       0.000350
      7 H                     0.068658      -0.000000
      8 H                     0.096839      -0.000008
      9 H                     0.105646       0.000047
     10 C                    -0.128982       0.000189
     11 C                     0.029303       0.000178
     12 C                    -0.130498      -0.000106
     13 H                     0.115402      -0.000050
     14 H                     0.091808      -0.002465
     15 H                     0.109064      -0.000098
     16 C                    -0.216004      -0.000464
     17 C                     0.021647      -0.002362
     18 H                     0.136179       0.000662
     19 H                     0.066920       0.000039
     20 C                    -0.133026      -0.001879
     21 C                    -0.010742       0.016387
     22 C                    -0.223748       0.002724
     23 C                     0.141616       0.034371
     24 H                     0.111848      -0.007418
     25 H                     0.140381       0.001631
     26 H                     0.119359      -0.000580
     27 H                     0.084966      -0.000026
     28 C                    -0.224209      -0.002062
     29 H                     0.113201       0.000482
     30 C                     0.000839       0.018467
     31 H                     0.080649       0.000015
     32 H                     0.142700       0.002212
     33 C                     0.032486      -0.103635
     34 H                     0.136859       0.000324
     35 H                     0.121964       0.000694
     36 C                    -0.027364      -0.043924
     37 C                    -0.043731      -0.015005
     38 H                     0.113582       0.001863
     39 C                    -0.057107      -0.157445
     40 H                     0.145366       0.006628
     41 H                     0.129896       0.006552
     42 H                     0.120707      -0.000558
     43 H                     0.135320       0.001376
  --------------------------------------------------------
  Sum of atomic charges =     2.000000
  Sum of spin   charges =     4.000000

 -----------------------------------------------------------------
                    Cartesian Multipole Moments
 -----------------------------------------------------------------
    Charge (ESU x 10^10)
                 9.6064
    Dipole Moment (Debye)
         X      -2.7086      Y      -0.5562      Z       0.1889
       Tot       2.7716
    Quadrupole Moments (Debye-Ang)
        XX     -35.6396     XY     -16.4827     YY     -64.2738
        XZ      -8.4636     YZ     -10.7921     ZZ     -88.0612
    Octopole Moments (Debye-Ang^2)
       XXX     -52.7022    XXY      78.4266    XYY    -133.9795
       YYY      -9.3421    XXZ     -83.8484    XYZ      58.8346
       YYZ      -1.3622    XZZ      -5.5036    YZZ     -52.2361
       ZZZ     -90.2095
    Hexadecapole Moments (Debye-Ang^3)
      XXXX   -3775.1833   XXXY    -302.2766   XXYY    -688.1442
      XYYY    -115.0659   YYYY   -1933.6915   XXXZ     125.1984
      XXYZ     -13.0306   XYYZ       7.6526   YYYZ     122.7276
      XXZZ    -946.1049   XYZZ      95.9438   YYZZ    -567.5144
      XZZZ     -13.7019   YZZZ     223.2397   ZZZZ   -1479.9158
 -----------------------------------------------------------------
 Calculating MO derivatives via CPSCF
 D1JvT checksum  = 1178544 10634.6621364103
 D1KAT checksum  = 3019632 598.7307490270
   1         3         129      0.923397    0.239163
   2         3         129      0.049865    0.021305
   3        88          44      0.002055    0.000784
   4       127           5      0.000128    0.000056
   5       129           3      0.000011    0.000005
   6       132           0      0.000000    0.000000    Roots Converged
 Time for AOints: 22.1 s (CPU) 2.3 s (wall)
 ------------------------------------------------------------------------------
                     AOints        : Timing summary (seconds)
 ------------------------------------------------------------------------------
     job step          cpu (% of tot)      sys (% of tot)     wall (% of tot)
 ------------------------------------------------------------------------------
  cpscf_lag         0.1144E+05 (89.9)   0.1745E+00 (99.2)   0.1020E+04 (88.8)
  iterzp            0.1266E+04 ( 9.9)   0.1319E-02 ( 0.7)   0.1258E+03 (10.9)
  make_fx           0.0000E+00 ( 0.0)   0.0000E+00 ( 0.0)   0.0000E+00 ( 0.0)
  AOints            0.2209E+02 ( 0.2)   0.5200E-04 ( 0.0)   0.2269E+01 ( 0.2)
 ------------------------------------------------------------------------------
   Grand Totals     0.1273E+05          0.1759E+00          0.1149E+04
 ------------------------------------------------------------------------------
 Calculating analytic Hessian of the SCF energy
 Polarizability Matrix (a.u.)
            1           2           3
    1-338.9048015  90.8948271   7.1489582
    2  90.8948271-353.4487875  94.4321854
    3   7.1489582  94.4321854-192.0791289
 
 Direct stationary perturbation theory relativistic correction:
 
 rels  =       4.816575702555
 relv  =     -16.255391350130
 rel2e =       0.000000000000
 E_rel =     -11.438815647576
 
 Hessian of the SCF Energy
            1           2           3           4           5           6
    1   0.0187700  -0.0531714   0.0307873  -0.0215071   0.0417518  -0.0311545
    2  -0.0531714   0.2655449  -0.1425943   0.0605303  -0.2074205   0.1411145
    3   0.0307873  -0.1425943   0.0885012  -0.0346756   0.1178004  -0.0888737
    4  -0.0215071   0.0605303  -0.0346756   0.0452752   0.0116637   0.0402111
    5   0.0417518  -0.2074205   0.1178004   0.0116637   0.4354173  -0.0676881
    6  -0.0311545   0.1411145  -0.0888737   0.0402111  -0.0676881   0.1308619
    7   0.0026489  -0.0060530   0.0063247  -0.0145369  -0.0384906  -0.0105841
    8   0.0123496  -0.0538118   0.0229868  -0.0602582  -0.2011704  -0.0922051
    9  -0.0000673  -0.0079551   0.0033441  -0.0028023  -0.0670273  -0.0622490
   10  -0.0000186   0.0000591  -0.0000236  -0.0000370  -0.0001050   0.0000304
   11   0.0000591   0.0000583   0.0000401  -0.0000080   0.0000524  -0.0000537
   12  -0.0000075  -0.0000132  -0.0000140  -0.0000009  -0.0000127   0.0000219
   13  -0.0000323   0.0000412  -0.0000333  -0.0000315  -0.0001820   0.0000451
   14  -0.0000096  -0.0001017  -0.0000082   0.0000666   0.0001475  -0.0000163
   15  -0.0000028   0.0000073   0.0000218   0.0000020   0.0000249  -0.0000041
   16   0.0000964  -0.0002367   0.0000793   0.0001017   0.0005570  -0.0001447
   17  -0.0000830   0.0001634  -0.0000902  -0.0001073  -0.0005213   0.0001253
   18  -0.0001076  -0.0002472  -0.0001189   0.0001299   0.0001184   0.0000602
   19  -0.0000170   0.0001949  -0.0000950  -0.0001687  -0.0004713   0.0001605
   20   0.0000168  -0.0000630   0.0000474   0.0000578   0.0001404  -0.0000353
   21   0.0000145   0.0000251   0.0000245  -0.0000066   0.0000501  -0.0000356
   22  -0.0000044   0.0000000  -0.0000040   0.0000137   0.0000033  -0.0000028
   23  -0.0000103   0.0000153  -0.0000016   0.0000054  -0.0000330  -0.0000000
   24  -0.0000057  -0.0001450   0.0000087   0.0000128   0.0000888   0.0000022
   25  -0.0000103  -0.0000151  -0.0000168   0.0000166   0.0000129   0.0000160
   26  -0.0000027   0.0000054  -0.0000069   0.0000043  -0.0000144  -0.0000000
   27  -0.0000049  -0.0000287   0.0000060   0.0000084   0.0000145  -0.0000052
   28   0.0000544   0.0001260   0.0000103  -0.0000556   0.0000139  -0.0000237
   29   0.0000056   0.0000023   0.0000029  -0.0000000  -0.0000034   0.0000001
   30   0.0000244   0.0004368  -0.0000479  -0.0000591  -0.0002588   0.0000027
   31  -0.0000386   0.0001655   0.0000802  -0.0000956  -0.0001369  -0.0000254
   32   0.0001389   0.0004070  -0.0000884  -0.0000438   0.0000713   0.0000333
   33   0.0002715   0.0003369   0.0002048  -0.0003583   0.0000196  -0.0001547
   34  -0.0000644  -0.0000546  -0.0000078   0.0000302  -0.0001604  -0.0000076
   35   0.0000188  -0.0001985   0.0000383   0.0000207   0.0002182  -0.0000318
   36  -0.0000830  -0.0001386  -0.0000803   0.0000855  -0.0000395   0.0001016
   37  -0.0000031   0.0000302  -0.0000047  -0.0000026  -0.0000186   0.0000036
   38  -0.0000062  -0.0000583   0.0000012   0.0000156   0.0000365  -0.0000012
   39  -0.0000311  -0.0000759  -0.0000069   0.0000332  -0.0000044   0.0000082
   40   0.0001478   0.0012036  -0.0008343  -0.0003239  -0.0001457   0.0018020
   41   0.0002751  -0.0013550   0.0010386  -0.0000232   0.0002824  -0.0004669
   42  -0.0005146   0.0026795  -0.0017387   0.0010554  -0.0006121   0.0028551
   43   0.0000939   0.0000032   0.0000295  -0.0000849   0.0002445  -0.0000290
   44   0.0001193   0.0000904   0.0000110   0.0000136   0.0000507  -0.0000123
   45  -0.0001543  -0.0000649  -0.0000606   0.0001092  -0.0001082   0.0000805
   46   0.0001548  -0.0000785  -0.0000361   0.0001468   0.0003739   0.0001241
   47  -0.0001657  -0.0006384   0.0001359  -0.0001216   0.0007768  -0.0001096
   48   0.0002243   0.0000113   0.0000182  -0.0000628   0.0004010  -0.0000071
   49   0.0003067  -0.0023514   0.0004855   0.0004335   0.0021031  -0.0012281
   50  -0.0004441   0.0003529   0.0003704  -0.0004204  -0.0018281   0.0002245
   51   0.0002494   0.0026667  -0.0005445  -0.0004881  -0.0019579   0.0001729
   52   0.0000205   0.0000628  -0.0000375   0.0000092   0.0000178   0.0000071
   53   0.0000108  -0.0002914   0.0000238   0.0000495   0.0002176  -0.0000150
   54   0.0000375  -0.0003243   0.0000074   0.0000615   0.0002722  -0.0000254
   55   0.0000226  -0.0008833   0.0003212   0.0001047   0.0003946  -0.0001248
   56  -0.0003213  -0.0001972  -0.0002308   0.0001794  -0.0008944   0.0001264
   57  -0.0001016  -0.0001844   0.0001461   0.0001660  -0.0000591  -0.0001131
   58   0.0000707  -0.0007415   0.0000593   0.0000941   0.0006232  -0.0000582
   59   0.0001544   0.0016264  -0.0003635  -0.0001745  -0.0006555   0.0000448
   60  -0.0002084  -0.0000628   0.0001598  -0.0000788  -0.0004125   0.0000215
   61   0.0004008   0.0036068  -0.0004226  -0.0004016   0.0036632   0.0027642
   62   0.0010772   0.0013826  -0.0016428  -0.0003543   0.0015583  -0.0010849
   63   0.0000436  -0.0027999   0.0011683  -0.0002234   0.0014072  -0.0003400
   64  -0.0002367  -0.0014395   0.0004869   0.0006922   0.0011701  -0.0009933
   65   0.0002149   0.0016897  -0.0005852   0.0004069  -0.0005940   0.0029401
   66  -0.0000875   0.0014558  -0.0007083  -0.0008575  -0.0002867  -0.0009141
   67  -0.0003390   0.0013292  -0.0000188  -0.0001607  -0.0016437   0.0003375
   68  -0.0002032  -0.0020141   0.0005697   0.0001918   0.0008541  -0.0001577
   69   0.0005085  -0.0018996   0.0001594   0.0003855   0.0024863  -0.0004706
   70   0.0000288   0.0008480  -0.0003216  -0.0000822  -0.0003440   0.0004733
   71  -0.0000466   0.0000152   0.0000319  -0.0000727   0.0001296  -0.0003418
   72  -0.0000075  -0.0000158  -0.0000723  -0.0000664  -0.0002338   0.0000019
   73   0.0000440   0.0000277   0.0000092  -0.0000119   0.0000617  -0.0000177
   74  -0.0000323   0.0002659  -0.0000563  -0.0000316  -0.0002221   0.0000323
   75   0.0000255  -0.0001415   0.0000327   0.0000085   0.0001040  -0.0000172
   76  -0.0000140  -0.0000537  -0.0000043   0.0000480   0.0000560   0.0000052
   77   0.0000545  -0.0000636   0.0000361   0.0002184   0.0002262   0.0003727
   78  -0.0001321  -0.0000738   0.0000090   0.0001148  -0.0000599  -0.0001579
   79  -0.0000283   0.0000392  -0.0000222  -0.0000120  -0.0000549   0.0000376
   80   0.0000142   0.0000008   0.0000105  -0.0000065   0.0000147  -0.0000086
   81   0.0000009   0.0000426   0.0000123  -0.0000080  -0.0000337  -0.0000063
   82  -0.0000559   0.0002150  -0.0001105   0.0000122  -0.0002391   0.0000609
   83   0.0000173  -0.0003821   0.0000411   0.0000871   0.0001825  -0.0000427
   84  -0.0001918   0.0003272  -0.0000885  -0.0000219  -0.0004559   0.0000863
   85  -0.0000924  -0.0001489   0.0001941  -0.0000157   0.0001064  -0.0000299
   86  -0.0000038   0.0000502  -0.0000047  -0.0000214  -0.0000201   0.0000212
   87   0.0000988   0.0000843  -0.0000549   0.0000043  -0.0000144  -0.0000124
   88   0.0001004   0.0025382  -0.0034257  -0.0091742  -0.0199558  -0.0007590
   89  -0.0016582  -0.0021388   0.0002958  -0.0135215  -0.0348339   0.0140366
   90  -0.0002087   0.0116554  -0.0020739  -0.0047493   0.0129425   0.0274117
   91  -0.0003872  -0.0002172  -0.0001882   0.0000449  -0.0002236   0.0001743
   92   0.0001126  -0.0000774  -0.0000496  -0.0002476   0.0003379   0.0000483
   93   0.0000081  -0.0000240   0.0000027   0.0000565  -0.0000731   0.0000047
   94  -0.0001033  -0.0001887   0.0001003   0.0000112  -0.0001018   0.0000139
   95   0.0000065  -0.0005400   0.0000810   0.0000606   0.0003536  -0.0000234
   96   0.0000437   0.0000883  -0.0000164  -0.0000044  -0.0000114  -0.0000150
   97   0.0003783  -0.0045196   0.0009301  -0.0004117  -0.0004904  -0.0025773
   98  -0.0003860  -0.0017732   0.0012244   0.0045860   0.0029519   0.0006602
   99   0.0002405  -0.0024933   0.0003863  -0.0015224  -0.0013727  -0.0028669
  100  -0.0000038   0.0001376  -0.0000505  -0.0000123  -0.0000934   0.0000210
  101   0.0000082   0.0000398  -0.0000339  -0.0000040  -0.0000015   0.0000072
  102   0.0000280  -0.0001062   0.0000190   0.0000184   0.0000764  -0.0000287
  103  -0.0000110  -0.0001607  -0.0000024   0.0000787  -0.0000123   0.0000071
  104   0.0000114  -0.0001214   0.0000291   0.0000571  -0.0000440  -0.0000143
  105  -0.0000624  -0.0002215   0.0000284   0.0000575  -0.0000917  -0.0000381
  106  -0.0007882  -0.0014237   0.0003237   0.0013770  -0.0008864   0.0003608
  107   0.0004317   0.0012293  -0.0002772  -0.0016505   0.0003787  -0.0005234
  108   0.0000527   0.0007985  -0.0003846  -0.0001332  -0.0003303  -0.0003308
  109   0.0004822   0.0017294  -0.0002676  -0.0011020   0.0005935  -0.0002445
  110  -0.0005634  -0.0029128   0.0001809   0.0014223  -0.0010096  -0.0000441
  111   0.0000770  -0.0003329   0.0001322   0.0001313   0.0007228   0.0002266
  112   0.0000161  -0.0001239   0.0000742  -0.0000579   0.0000378   0.0000635
  113  -0.0000325  -0.0001345   0.0000569   0.0000168   0.0001551  -0.0000010
  114   0.0000030   0.0002014  -0.0000809  -0.0001778  -0.0003142  -0.0002591
  115  -0.0002064  -0.0008191   0.0000329   0.0002523  -0.0006783  -0.0002121
  116   0.0005244   0.0026850  -0.0002362  -0.0011019   0.0010393   0.0001487
  117   0.0000176   0.0002063   0.0000452  -0.0001350   0.0001193   0.0000142
  118  -0.0000426  -0.0003530   0.0000470   0.0001950   0.0001203   0.0000780
  119   0.0000081  -0.0000179   0.0000345  -0.0000141   0.0000568   0.0000114
  120   0.0000144   0.0000582  -0.0000765   0.0000073  -0.0000777  -0.0000064
  121   0.0000367   0.0001691  -0.0000230  -0.0000872  -0.0000333  -0.0000091
  122   0.0000203   0.0001579  -0.0000025  -0.0001104  -0.0000616  -0.0000444
  123  -0.0000011   0.0000733   0.0000436  -0.0000769   0.0000004  -0.0000464
  124  -0.0000289   0.0000254   0.0000491  -0.0003353  -0.0007902   0.0001735
  125  -0.0002961  -0.0012715   0.0009369  -0.0000905   0.0007198   0.0000703
  126   0.0001563   0.0001220  -0.0004445   0.0001155  -0.0003306  -0.0000803
  127   0.0001593  -0.0000489   0.0002014  -0.0002288   0.0016891   0.0012555
  128   0.0000345  -0.0001995   0.0002467  -0.0012699   0.0029582   0.0029036
  129   0.0002071  -0.0024486   0.0010045   0.0037343   0.0052178  -0.0048762
            7           8           9          10          11          12
    1   0.0026489   0.0123496  -0.0000673  -0.0000186   0.0000591  -0.0000075
    2  -0.0060530  -0.0538118  -0.0079551   0.0000591   0.0000583  -0.0000132
    3   0.0063247   0.0229868   0.0033441  -0.0000236   0.0000401  -0.0000140
    4  -0.0145369  -0.0602582  -0.0028023  -0.0000370  -0.0000080  -0.0000009
    5  -0.0384906  -0.2011704  -0.0670273  -0.0001050   0.0000524  -0.0000127
    6  -0.0105841  -0.0922051  -0.0622490   0.0000304  -0.0000537   0.0000219
    7   0.0421972   0.0526134  -0.0297743   0.0000600   0.0000425  -0.0000345
    8   0.0526134   0.3091680   0.0554035   0.0000214  -0.0000489  -0.0000223
    9  -0.0297743   0.0554035   0.1982955  -0.0000947   0.0000984  -0.0000345
   10   0.0000600   0.0000214  -0.0000947   0.0893176   0.0297125  -0.0964666
   11   0.0000425  -0.0000489   0.0000984   0.0297125   0.0869136  -0.0895051
   12  -0.0000345  -0.0000223  -0.0000345  -0.0964666  -0.0895051   0.3314008
   13   0.0001595   0.0001089  -0.0002142   0.0071998   0.0076263   0.0118637
   14  -0.0001217   0.0000414   0.0001281   0.0073350   0.0070005   0.0100979
   15  -0.0000088  -0.0000849   0.0000162  -0.0194319  -0.0176323  -0.0158841
   16  -0.0001943  -0.0000047   0.0003876  -0.0906849  -0.0300247   0.0896472
   17   0.0003655   0.0003124  -0.0006397  -0.0295773  -0.0821961   0.0828453
   18  -0.0002991   0.0003191   0.0000584   0.0881444   0.0849504  -0.3175744
   19   0.0001024   0.0000554  -0.0004725  -0.0067691   0.0027875  -0.0056076
   20  -0.0002296  -0.0002162   0.0002808  -0.0115640   0.0030013  -0.0001454
   21  -0.0000228  -0.0000450   0.0000989   0.0340379  -0.0087790   0.0004752
   22  -0.0000271  -0.0000153   0.0000375  -0.0015515   0.0006882   0.0006018
   23   0.0000293  -0.0000006   0.0000185   0.0010972  -0.0008132  -0.0000714
   24   0.0000031   0.0001038  -0.0001427   0.0006638   0.0002429  -0.0004284
   25  -0.0000237   0.0000051  -0.0000136  -0.0000882   0.0002215   0.0000391
   26   0.0000011  -0.0000001   0.0000135   0.0000393  -0.0000885   0.0000944
   27  -0.0000075   0.0000175   0.0000122  -0.0000021  -0.0000722  -0.0000528
   28  -0.0000296  -0.0001123   0.0000926  -0.0005680   0.0003508   0.0007141
   29   0.0000114  -0.0000111  -0.0000102   0.0010955  -0.0003143  -0.0006226
   30  -0.0000531  -0.0002631   0.0004058   0.0000228  -0.0000494   0.0000008
   31  -0.0000027  -0.0005698   0.0003322   0.0014100  -0.0110727  -0.0009060
   32  -0.0009829  -0.0004839   0.0013952   0.0014033  -0.0099195  -0.0019165
   33   0.0005761  -0.0005687  -0.0000615  -0.0068410   0.0293913   0.0001483
   34   0.0001853   0.0001668  -0.0001354   0.0008981  -0.0013040   0.0001644
   35  -0.0000226   0.0000770  -0.0001639  -0.0006234   0.0013586   0.0002006
   36  -0.0000015   0.0001069  -0.0001611  -0.0003550   0.0001675  -0.0004118
   37  -0.0000094  -0.0000186   0.0000193  -0.0000509  -0.0000291   0.0000258
   38  -0.0000163   0.0000428  -0.0000317  -0.0001681   0.0002052  -0.0000841
   39   0.0000051   0.0000598  -0.0000338   0.0000100  -0.0001153   0.0000566
   40  -0.0001431  -0.0012261  -0.0003240  -0.0000017  -0.0000045   0.0000001
   41   0.0000426   0.0011643  -0.0014530   0.0000059   0.0000025  -0.0000012
   42  -0.0003743  -0.0018839  -0.0002296  -0.0000023  -0.0000022  -0.0000005
   43  -0.0002668  -0.0001864  -0.0002090  -0.0000182   0.0000328   0.0000437
   44   0.0000415  -0.0000631   0.0000330   0.0000178  -0.0000149  -0.0001062
   45   0.0000060   0.0000754  -0.0000037   0.0001572  -0.0002056   0.0002526
   46  -0.0016895  -0.0006505  -0.0007839   0.0000393   0.0017707   0.0000365
   47  -0.0011120  -0.0002718  -0.0006941   0.0013639  -0.0057879  -0.0002215
   48  -0.0004992  -0.0001752  -0.0005123   0.0000886  -0.0006878   0.0007462
   49   0.0001699   0.0067161  -0.0063065  -0.0000803   0.0002203  -0.0003229
   50   0.0031944  -0.0008935  -0.0008865  -0.0002980   0.0013291  -0.0005393
   51   0.0015462  -0.0019567   0.0005562  -0.0001064   0.0010629   0.0009914
   52  -0.0001914   0.0000187   0.0001736  -0.0000125   0.0000489   0.0000050
   53  -0.0001237   0.0002520  -0.0001809  -0.0000335   0.0000023  -0.0000550
   54  -0.0002282   0.0003118  -0.0001408  -0.0000400   0.0000124  -0.0000217
   55   0.0000877   0.0010693   0.0000937   0.0001217   0.0001115  -0.0000787
   56   0.0010744   0.0008722   0.0006711   0.0000710   0.0000236  -0.0001065
   57   0.0002858   0.0003029   0.0005819  -0.0001034  -0.0002278   0.0000641
   58  -0.0002041   0.0006406  -0.0007067  -0.0000463   0.0000313  -0.0000676
   59  -0.0008372  -0.0009715   0.0018651   0.0001475  -0.0001459   0.0000793
   60   0.0012323  -0.0003324  -0.0006991   0.0002027  -0.0001867   0.0000932
   61  -0.0154889  -0.0202911   0.0290337   0.0000172  -0.0001986   0.0001082
   62  -0.0091944   0.0094655   0.0067116   0.0000793  -0.0000044  -0.0000618
   63   0.0177109   0.0015153  -0.0225386   0.0001871  -0.0000244  -0.0000350
   64  -0.0000175   0.0008442   0.0004855  -0.0000195   0.0000106   0.0000155
   65  -0.0004587  -0.0022577   0.0008692   0.0000152  -0.0000150   0.0000008
   66  -0.0005041  -0.0028814   0.0032253  -0.0000257   0.0000040  -0.0000100
   67   0.0008087  -0.0020245   0.0017674   0.0003652  -0.0002110   0.0002171
   68   0.0014784   0.0019011  -0.0035454  -0.0001434  -0.0002875   0.0001074
   69  -0.0026280   0.0031162  -0.0008804   0.0000104   0.0001484  -0.0000155
   70  -0.0000289  -0.0009829   0.0008431  -0.0000142  -0.0000114  -0.0000022
   71   0.0002972  -0.0000455   0.0001379  -0.0000145   0.0000021  -0.0000057
   72   0.0002586   0.0003631   0.0001435  -0.0000038  -0.0000059   0.0000013
   73  -0.0000768  -0.0000406   0.0000341   0.0000033  -0.0000057  -0.0000100
   74   0.0001430  -0.0003054   0.0001294  -0.0000297  -0.0000333  -0.0000313
   75  -0.0000321   0.0001539  -0.0001382  -0.0000172  -0.0000304   0.0000010
   76  -0.0000683   0.0000541   0.0000922  -0.0000014  -0.0000019   0.0000000
   77  -0.0000956  -0.0002472  -0.0001427  -0.0000089   0.0000022   0.0000020
   78   0.0001840   0.0002236   0.0004119  -0.0000064  -0.0000001   0.0000020
   79  -0.0000095  -0.0000052  -0.0000042  -0.0000371  -0.0001418   0.0000294
   80   0.0000042   0.0000079  -0.0000017  -0.0000749   0.0000537  -0.0000684
   81   0.0000184  -0.0000201   0.0000479   0.0000935  -0.0000972   0.0000174
   82  -0.0000062  -0.0000151   0.0002091  -0.0000957   0.0000422  -0.0000430
   83  -0.0001213   0.0003404   0.0000075   0.0000671   0.0000360   0.0000204
   84   0.0003590  -0.0005025   0.0002075  -0.0000215   0.0000247  -0.0000298
   85   0.0000706   0.0000548  -0.0002331  -0.0000092   0.0000078   0.0000027
   86  -0.0000495   0.0000747  -0.0000182  -0.0000077  -0.0000046  -0.0000043
   87  -0.0000476  -0.0000688   0.0001338   0.0000024   0.0000031  -0.0000094
   88  -0.0182074   0.0051967   0.0260058  -0.0002504   0.0000618  -0.0000988
   89   0.0036654  -0.0265184  -0.0043889  -0.0001287   0.0000033  -0.0000761
   90   0.0146215  -0.0309269  -0.1003670   0.0000981  -0.0001331   0.0000523
   91  -0.0000488   0.0001116  -0.0000709   0.0003442  -0.0005994   0.0000592
   92  -0.0001606  -0.0002067  -0.0000354   0.0001164  -0.0001990   0.0000711
   93  -0.0000252  -0.0000048   0.0001244  -0.0002971   0.0015926   0.0002109
   94   0.0003980   0.0000436  -0.0003143  -0.0000318   0.0000092  -0.0000020
   95   0.0000222   0.0004088  -0.0005383  -0.0001165   0.0000915  -0.0000263
   96  -0.0001182  -0.0000265   0.0001801  -0.0000239   0.0000232  -0.0000041
   97   0.0099416   0.0164250  -0.0170378  -0.0000048   0.0000137   0.0000043
   98  -0.0020112  -0.0147230   0.0269017  -0.0000601  -0.0000401   0.0000503
   99  -0.0032057   0.0229974  -0.0268415  -0.0000105  -0.0000384   0.0000232
  100  -0.0000094  -0.0000862   0.0001118   0.0000171  -0.0000042  -0.0000054
  101  -0.0000277  -0.0000097   0.0000252   0.0000186  -0.0000107   0.0000012
  102  -0.0000335   0.0001196  -0.0000557   0.0000088  -0.0000096   0.0000098
  103  -0.0000440   0.0002677  -0.0000161  -0.0000045  -0.0000034   0.0000003
  104  -0.0000392   0.0001947   0.0000102   0.0000005  -0.0000049   0.0000014
  105   0.0000671   0.0003812  -0.0002396   0.0000047  -0.0000020   0.0000014
  106  -0.0032061  -0.0007023   0.0017598   0.0000168  -0.0000190   0.0000001
  107   0.0054051   0.0021223  -0.0048385  -0.0000348   0.0000599  -0.0000250
  108  -0.0013524   0.0016368  -0.0006207  -0.0000091  -0.0000373   0.0000176
  109   0.0007550  -0.0009540  -0.0004127  -0.0000185   0.0000389  -0.0000118
  110  -0.0015304   0.0045079  -0.0013229   0.0000294  -0.0000867   0.0000228
  111   0.0012622  -0.0015035   0.0010144  -0.0000003   0.0000084  -0.0000027
  112   0.0003923  -0.0002800   0.0000171   0.0000056  -0.0000157   0.0000106
  113   0.0001904  -0.0002132   0.0000872  -0.0000087   0.0000164   0.0000024
  114  -0.0002744   0.0011254  -0.0004874   0.0000251  -0.0000031  -0.0000104
  115   0.0000229   0.0020809  -0.0007434   0.0000016  -0.0000168   0.0000061
  116   0.0002845  -0.0043591   0.0015799  -0.0000232   0.0000631  -0.0000172
  117   0.0003019  -0.0003556  -0.0000695  -0.0000055   0.0000217  -0.0000041
  118   0.0000321  -0.0000454   0.0000619  -0.0000007  -0.0000101   0.0000017
  119   0.0001342  -0.0001271  -0.0000217   0.0000006   0.0000067  -0.0000010
  120  -0.0002995   0.0002406   0.0000074   0.0000029  -0.0000143   0.0000020
  121  -0.0000270  -0.0000224  -0.0000096  -0.0000055   0.0000050   0.0000013
  122   0.0000712   0.0000375  -0.0000701  -0.0000014   0.0000137  -0.0000010
  123   0.0001890  -0.0001094  -0.0000765   0.0000046   0.0000095  -0.0000028
  124  -0.0001799   0.0012729  -0.0001680   0.0000508  -0.0000694  -0.0000121
  125   0.0007228  -0.0012418  -0.0009217  -0.0000321  -0.0001192   0.0000267
  126   0.0001599   0.0005138   0.0004298  -0.0000020   0.0000437   0.0000000
  127  -0.0032949  -0.0116249  -0.0006435   0.0005524  -0.0001420   0.0000799
  128  -0.0081566  -0.0227933  -0.0014789   0.0003572  -0.0001613   0.0001169
  129   0.0052961   0.0218625   0.0072875   0.0000944   0.0000678  -0.0000438
           13          14          15          16          17          18
    1  -0.0000323  -0.0000096  -0.0000028   0.0000964  -0.0000830  -0.0001076
    2   0.0000412  -0.0001017   0.0000073  -0.0002367   0.0001634  -0.0002472
    3  -0.0000333  -0.0000082   0.0000218   0.0000793  -0.0000902  -0.0001189
    4  -0.0000315   0.0000666   0.0000020   0.0001017  -0.0001073   0.0001299
    5  -0.0001820   0.0001475   0.0000249   0.0005570  -0.0005213   0.0001184
    6   0.0000451  -0.0000163  -0.0000041  -0.0001447   0.0001253   0.0000602
    7   0.0001595  -0.0001217  -0.0000088  -0.0001943   0.0003655  -0.0002991
    8   0.0001089   0.0000414  -0.0000849  -0.0000047   0.0003124   0.0003191
    9  -0.0002142   0.0001281   0.0000162   0.0003876  -0.0006397   0.0000584
   10   0.0071998   0.0073350  -0.0194319  -0.0906849  -0.0295773   0.0881444
   11   0.0076263   0.0070005  -0.0176323  -0.0300247  -0.0821961   0.0849504
   12   0.0118637   0.0100979  -0.0158841   0.0896472   0.0828453  -0.3175744
   13   0.1461542   0.0850196   0.1220289  -0.1435829  -0.0823112  -0.1132944
   14   0.0850196   0.1417634   0.1170915  -0.0835179  -0.1332476  -0.1122762
   15   0.1220289   0.1170915   0.2195140  -0.1142044  -0.1106728  -0.2145735
   16  -0.1435829  -0.0835179  -0.1142044   0.6845282   0.0218544  -0.0035284
   17  -0.0823112  -0.1332476  -0.1106728   0.0218544   0.5000036   0.0170533
   18  -0.1132944  -0.1122762  -0.2145735  -0.0035284   0.0170533   0.6845914
   19  -0.0130940   0.0066842   0.0075994  -0.3510517   0.0654377   0.0308966
   20  -0.0189475   0.0053892   0.0038363   0.0687582  -0.0690950  -0.0075778
   21  -0.0260426   0.0075207   0.0047412   0.0303293  -0.0072673  -0.0627904
   22   0.0000265   0.0000509  -0.0000560  -0.0005742  -0.0000222   0.0010448
   23   0.0000109   0.0000204  -0.0000976   0.0009032  -0.0000720  -0.0007371
   24  -0.0000001   0.0000292  -0.0000453   0.0002024   0.0000727   0.0000219
   25  -0.0000953   0.0006126   0.0000716   0.0013541  -0.0014929  -0.0005708
   26   0.0004548  -0.0000737  -0.0001632   0.0014341   0.0005772   0.0009498
   27  -0.0000116   0.0001619   0.0002478   0.0006334  -0.0002384   0.0001727
   28  -0.0001535   0.0000621   0.0000437   0.0002353  -0.0005444  -0.0000567
   29  -0.0000086  -0.0000202   0.0000504   0.0000463  -0.0000586   0.0001848
   30   0.0000560  -0.0000761  -0.0001283  -0.0005211  -0.0003635  -0.0000835
   31   0.0027401  -0.0155254   0.0041635  -0.0837826   0.0177933  -0.0003382
   32   0.0051376  -0.0195076   0.0047179   0.0159525  -0.1709446   0.0097313
   33   0.0051242  -0.0230530   0.0048324  -0.0017707   0.0189770  -0.0806959
   34   0.0005339  -0.0013817  -0.0001532  -0.0106725   0.0091068  -0.0004754
   35   0.0015457   0.0014162   0.0005833   0.0345753  -0.0097161  -0.0014815
   36   0.0006301  -0.0005685   0.0003040  -0.0064313   0.0014479   0.0006880
   37  -0.0000249   0.0000088   0.0000184   0.0001617  -0.0001247  -0.0000509
   38   0.0000120   0.0000651  -0.0000366   0.0002204  -0.0000783   0.0000512
   39   0.0000291   0.0000027   0.0000335  -0.0000542   0.0005322  -0.0000148
   40   0.0000014   0.0000069  -0.0000041   0.0000150  -0.0000020   0.0000261
   41   0.0000025  -0.0000029  -0.0000022  -0.0000006   0.0000114  -0.0000040
   42   0.0000019  -0.0000013   0.0000010   0.0000011   0.0000094   0.0000019
   43   0.0001497  -0.0000873   0.0000096   0.0000857   0.0003491  -0.0001979
   44  -0.0000908  -0.0003644   0.0002331   0.0003789   0.0007385   0.0003499
   45   0.0000197   0.0005385  -0.0000383  -0.0004250  -0.0010465   0.0014980
   46  -0.0000782  -0.0001586   0.0002092   0.0023027   0.0021045  -0.0050062
   47   0.0000255   0.0017060   0.0003634  -0.0127295  -0.0146942   0.0328019
   48   0.0000368  -0.0007500   0.0006641   0.0028226   0.0070640  -0.0061165
   49  -0.0002921   0.0018697  -0.0007909   0.0034085  -0.0037006   0.0039129
   50   0.0012816  -0.0041742   0.0011713  -0.0140411  -0.0249444  -0.0234369
   51  -0.0009630   0.0024256  -0.0005880   0.0036738  -0.0089060   0.0024275
   52  -0.0000241   0.0000654  -0.0000164   0.0001163  -0.0000209   0.0000988
   53  -0.0000373   0.0000793   0.0000232   0.0002336   0.0000928   0.0001003
   54  -0.0000312   0.0000879   0.0000050   0.0002546   0.0000461   0.0001348
   55  -0.0000298   0.0000612   0.0000600   0.0005150   0.0003984  -0.0006050
   56  -0.0000327  -0.0000792   0.0000516  -0.0005351   0.0009755  -0.0005158
   57  -0.0000972   0.0001049  -0.0000894  -0.0005603  -0.0015923   0.0015563
   58   0.0000201   0.0000111   0.0000286   0.0000771   0.0000095   0.0001408
   59   0.0000087  -0.0002275   0.0000349  -0.0005559  -0.0002190  -0.0005096
   60  -0.0000154   0.0000300   0.0000082  -0.0001672   0.0002041  -0.0000727
   61   0.0002690  -0.0000474   0.0003885  -0.0012323   0.0030992  -0.0002579
   62   0.0003246  -0.0003428   0.0001391  -0.0011102   0.0012688  -0.0008758
   63   0.0003789  -0.0005662   0.0002456  -0.0013080   0.0013547  -0.0010175
   64  -0.0000357   0.0000035   0.0000083  -0.0000485  -0.0000436  -0.0000336
   65   0.0000111   0.0000095  -0.0000113   0.0000458   0.0000367   0.0000509
   66  -0.0000225   0.0000225   0.0000122   0.0000989  -0.0000962   0.0000124
   67   0.0001817  -0.0008094   0.0000580  -0.0017146  -0.0007949  -0.0022312
   68   0.0000687  -0.0004123   0.0003075  -0.0010802   0.0001436  -0.0012009
   69   0.0003816  -0.0004263   0.0004055  -0.0008064   0.0014763  -0.0015656
   70  -0.0000073   0.0000137   0.0000030   0.0000412  -0.0000284   0.0000405
   71   0.0000047  -0.0000076   0.0000094   0.0000036   0.0000044  -0.0000166
   72  -0.0000043   0.0000118  -0.0000043   0.0000259  -0.0000220   0.0000354
   73   0.0000038  -0.0000080   0.0000109  -0.0000063   0.0000015  -0.0000467
   74  -0.0000041  -0.0000764   0.0000493  -0.0001581  -0.0000882  -0.0002008
   75   0.0000070  -0.0000473   0.0000313  -0.0001325  -0.0000580  -0.0001444
   76  -0.0000008   0.0000009  -0.0000014   0.0000046  -0.0000034   0.0000038
   77  -0.0000066   0.0000033   0.0000021  -0.0000057  -0.0000172   0.0000004
   78  -0.0000101   0.0000057   0.0000019  -0.0000020  -0.0000230   0.0000025
   79  -0.0000706  -0.0002833   0.0000412  -0.0060456  -0.0005931   0.0002773
   80  -0.0000000   0.0003372   0.0001451   0.0003918   0.0004580   0.0001315
   81   0.0000666   0.0001496   0.0000685   0.0009067  -0.0005606   0.0003331
   82  -0.0000921   0.0001504  -0.0000348   0.0002240  -0.0001986   0.0003415
   83   0.0000448   0.0001596  -0.0000882   0.0004740   0.0004702   0.0005458
   84   0.0000394  -0.0002402   0.0001258  -0.0005475  -0.0003500  -0.0008626
   85  -0.0000033   0.0000119  -0.0000001   0.0000397   0.0000071   0.0000144
   86  -0.0000093   0.0000363  -0.0000129   0.0000676  -0.0000044   0.0001115
   87  -0.0000013   0.0000165  -0.0000083   0.0000442   0.0000554   0.0000605
   88  -0.0004461   0.0003196   0.0001154   0.0010924  -0.0021867   0.0000921
   89  -0.0000182  -0.0001613   0.0003501   0.0005606  -0.0005550  -0.0012775
   90   0.0003204  -0.0002052   0.0000706  -0.0002062   0.0016770   0.0000644
   91   0.0000018   0.0001975   0.0000435  -0.0006757  -0.0002485   0.0021950
   92   0.0000927   0.0003268  -0.0000477  -0.0004636   0.0007020   0.0012718
   93   0.0000395  -0.0001248  -0.0000444   0.0025804   0.0003961  -0.0051955
   94   0.0000065  -0.0000020   0.0000240   0.0000264   0.0000359  -0.0000251
   95  -0.0000137   0.0000721   0.0000058   0.0001923   0.0000153   0.0001402
   96  -0.0000058  -0.0000161  -0.0000001  -0.0000684  -0.0000098  -0.0000504
   97   0.0001064  -0.0001174   0.0000334  -0.0003016   0.0003479  -0.0002131
   98  -0.0002360   0.0002251  -0.0000436   0.0002706  -0.0007113   0.0003775
   99  -0.0000747   0.0001171  -0.0000532   0.0001728  -0.0002363   0.0003053
  100   0.0000158  -0.0000251   0.0000091  -0.0000370   0.0000242  -0.0000473
  101   0.0000092  -0.0000037  -0.0000055   0.0000026   0.0000324   0.0000147
  102   0.0000137  -0.0000242   0.0000060  -0.0000366   0.0000426  -0.0000404
  103  -0.0000047   0.0000128  -0.0000038   0.0000322  -0.0000186   0.0000292
  104  -0.0000007   0.0000031  -0.0000032   0.0000048  -0.0000061   0.0000170
  105  -0.0000062   0.0000070  -0.0000041   0.0000131  -0.0000097   0.0000150
  106  -0.0000340   0.0000466  -0.0000265   0.0001390  -0.0000933   0.0001062
  107   0.0001205  -0.0001916   0.0000860  -0.0003697   0.0003558  -0.0004193
  108   0.0000062   0.0000017  -0.0000108  -0.0000258   0.0000167   0.0000868
  109   0.0000327  -0.0000577   0.0000358  -0.0001084   0.0000955  -0.0001772
  110  -0.0000773   0.0001671  -0.0000886   0.0003605  -0.0002682   0.0004719
  111   0.0000068  -0.0000050   0.0000029   0.0000034   0.0000208  -0.0000183
  112   0.0000214  -0.0000422   0.0000042  -0.0001317   0.0000616  -0.0000346
  113  -0.0000160  -0.0000040   0.0000059  -0.0000275  -0.0000041  -0.0000503
  114  -0.0000214   0.0000006   0.0000018  -0.0000017  -0.0000088  -0.0000382
  115  -0.0000185   0.0000279  -0.0000140   0.0000500  -0.0000461   0.0000787
  116   0.0000464  -0.0000999   0.0000589  -0.0002094   0.0001605  -0.0003057
  117   0.0000097  -0.0000290   0.0000168  -0.0000642   0.0000429  -0.0000968
  118  -0.0000028   0.0000110  -0.0000084   0.0000311  -0.0000162   0.0000487
  119   0.0000055  -0.0000078   0.0000038  -0.0000162   0.0000141  -0.0000254
  120  -0.0000078   0.0000190  -0.0000096   0.0000404  -0.0000299   0.0000593
  121   0.0000002  -0.0000082   0.0000041  -0.0000254   0.0000119  -0.0000258
  122   0.0000011  -0.0000079   0.0000073  -0.0000273   0.0000142  -0.0000489
  123   0.0000004  -0.0000155   0.0000096  -0.0000408   0.0000253  -0.0000584
  124   0.0000483  -0.0001122   0.0000268  -0.0001495   0.0002393  -0.0001528
  125  -0.0002236   0.0003586  -0.0001175   0.0011157   0.0003908   0.0012804
  126   0.0000132  -0.0001516   0.0000539  -0.0005473  -0.0007447  -0.0006992
  127   0.0004815  -0.0003346  -0.0002836  -0.0036587   0.0009147   0.0001540
  128   0.0002109  -0.0002135  -0.0002514  -0.0032897   0.0005001   0.0001834
  129  -0.0002616   0.0000309   0.0000441  -0.0003219  -0.0005192  -0.0003579
           19          20          21          22          23          24
    1  -0.0000170   0.0000168   0.0000145  -0.0000044  -0.0000103  -0.0000057
    2   0.0001949  -0.0000630   0.0000251   0.0000000   0.0000153  -0.0001450
    3  -0.0000950   0.0000474   0.0000245  -0.0000040  -0.0000016   0.0000087
    4  -0.0001687   0.0000578  -0.0000066   0.0000137   0.0000054   0.0000128
    5  -0.0004713   0.0001404   0.0000501   0.0000033  -0.0000330   0.0000888
    6   0.0001605  -0.0000353  -0.0000356  -0.0000028  -0.0000000   0.0000022
    7   0.0001024  -0.0002296  -0.0000228  -0.0000271   0.0000293   0.0000031
    8   0.0000554  -0.0002162  -0.0000450  -0.0000153  -0.0000006   0.0001038
    9  -0.0004725   0.0002808   0.0000989   0.0000375   0.0000185  -0.0001427
   10  -0.0067691  -0.0115640   0.0340379  -0.0015515   0.0010972   0.0006638
   11   0.0027875   0.0030013  -0.0087790   0.0006882  -0.0008132   0.0002429
   12  -0.0056076  -0.0001454   0.0004752   0.0006018  -0.0000714  -0.0004284
   13  -0.0130940  -0.0189475  -0.0260426   0.0000265   0.0000109  -0.0000001
   14   0.0066842   0.0053892   0.0075207   0.0000509   0.0000204   0.0000292
   15   0.0075994   0.0038363   0.0047412  -0.0000560  -0.0000976  -0.0000453
   16  -0.3510517   0.0687582   0.0303293  -0.0005742   0.0009032   0.0002024
   17   0.0654377  -0.0690950  -0.0072673  -0.0000222  -0.0000720   0.0000727
   18   0.0308966  -0.0075778  -0.0627904   0.0010448  -0.0007371   0.0000219
   19   0.3716467  -0.0693031  -0.0325048   0.0000822   0.0000490  -0.0001515
   20  -0.0693031   0.0728201   0.0064432   0.0000322   0.0000107  -0.0002088
   21  -0.0325048   0.0064432   0.0571742  -0.0002519  -0.0000136   0.0001584
   22   0.0000822   0.0000322  -0.0002519   0.0679880  -0.0558721   0.0234354
   23   0.0000490   0.0000107  -0.0000136  -0.0558721   0.3310775  -0.1118971
   24  -0.0001515  -0.0002088   0.0001584   0.0234354  -0.1118971   0.1058715
   25   0.0003357  -0.0002057   0.0001973   0.0002553  -0.0000198  -0.0001249
   26   0.0000261  -0.0000918   0.0001253   0.0002167   0.0005765  -0.0000109
   27   0.0002575  -0.0000581   0.0000986  -0.0005173  -0.0000204   0.0013577
   28   0.0000538  -0.0001716   0.0001745  -0.0693248   0.0524679  -0.0225022
   29  -0.0000719   0.0000249  -0.0000567   0.0527988  -0.3131535   0.1089213
   30  -0.0002669   0.0005657  -0.0000468  -0.0230093   0.1072241  -0.0967202
   31  -0.0013646   0.0333567  -0.0052020   0.0007555   0.0001668  -0.0011903
   32  -0.0023667  -0.0081488   0.0011544  -0.0004426  -0.0003068   0.0001179
   33  -0.0004980  -0.0026332  -0.0015797  -0.0004716   0.0000613   0.0012221
   34   0.0008697  -0.0006827  -0.0001868   0.0026440  -0.0003259  -0.0081731
   35   0.0003021  -0.0060077   0.0014119  -0.0148429   0.0012403   0.0307017
   36   0.0001268   0.0013096  -0.0000442   0.0069146  -0.0001861  -0.0122562
   37  -0.0000028   0.0000019  -0.0000028  -0.0016435  -0.0036979   0.0020106
   38   0.0000526   0.0000444  -0.0000810   0.0334600  -0.0006653   0.0008853
   39   0.0000180  -0.0001711   0.0000648  -0.0139406   0.0006070  -0.0003221
   40   0.0000030  -0.0000084  -0.0000052  -0.0000009  -0.0000020   0.0000028
   41   0.0000155  -0.0000130   0.0000024  -0.0000007  -0.0000003  -0.0000061
   42   0.0000062  -0.0000042  -0.0000022  -0.0000006  -0.0000006   0.0000024
   43  -0.0000015  -0.0000782  -0.0000338   0.0000236   0.0000006  -0.0000551
   44  -0.0000059  -0.0001346   0.0000083  -0.0000100   0.0000086   0.0000381
   45   0.0001144   0.0001117  -0.0000112   0.0000073   0.0000180   0.0000421
   46   0.0005349  -0.0000561  -0.0006872   0.0001133   0.0001716   0.0000116
   47  -0.0005523   0.0022622  -0.0002030   0.0001262  -0.0000918  -0.0000262
   48   0.0001681  -0.0013138   0.0004992   0.0000272   0.0000191   0.0000726
   49   0.0008120   0.0001752   0.0002253  -0.0003342  -0.0001613  -0.0006583
   50  -0.0002535   0.0015539  -0.0002031   0.0001419  -0.0001715  -0.0008754
   51  -0.0002863   0.0006087  -0.0000001  -0.0004711   0.0001209   0.0004499
   52   0.0000355  -0.0000260  -0.0000053   0.0003393   0.0002003   0.0002720
   53   0.0000820  -0.0001006  -0.0000231   0.0003785   0.0011519  -0.0002509
   54   0.0000826  -0.0001000  -0.0000244   0.0001303   0.0007676   0.0010836
   55   0.0001445  -0.0002801   0.0000648   0.0000099   0.0000317   0.0000581
   56  -0.0000938   0.0005406  -0.0000222   0.0000324   0.0000268  -0.0000652
   57  -0.0000136   0.0000504   0.0002742  -0.0000262  -0.0000623  -0.0000329
   58   0.0001101  -0.0000781  -0.0000788   0.0009914   0.0049311   0.0022472
   59  -0.0002360   0.0002392   0.0000761  -0.0150785  -0.0197818  -0.0232568
   60  -0.0000879   0.0000309   0.0001557   0.0051298   0.0068335   0.0064714
   61  -0.0002353   0.0003332   0.0000707   0.0001927   0.0000096   0.0006213
   62   0.0004191   0.0000209   0.0001375   0.0001465   0.0000455   0.0000358
   63   0.0002711  -0.0002791   0.0001211   0.0000629   0.0000866   0.0002161
   64  -0.0000199   0.0001340   0.0000241   0.0000184   0.0000011  -0.0000037
   65   0.0000088  -0.0000656   0.0000032  -0.0000010  -0.0000040   0.0000177
   66  -0.0001426   0.0000075   0.0000020  -0.0000044   0.0000056  -0.0000040
   67  -0.0004203   0.0003372   0.0002512   0.0014068   0.0013369   0.0028200
   68   0.0001722  -0.0000504   0.0000537  -0.0012052   0.0005344  -0.0008674
   69   0.0002545  -0.0002913  -0.0001149   0.0003361   0.0004419  -0.0001212
   70  -0.0000212  -0.0000010  -0.0000084  -0.0000028  -0.0000034   0.0000083
   71  -0.0000100  -0.0000052  -0.0000123  -0.0000059   0.0000016  -0.0000137
   72  -0.0000025  -0.0000051  -0.0000037  -0.0000016  -0.0000036   0.0000132
   73  -0.0000043  -0.0000073   0.0000029  -0.0001302  -0.0000626  -0.0001592
   74  -0.0000066   0.0000343   0.0000013  -0.0001585  -0.0000571  -0.0002107
   75   0.0000033   0.0000122   0.0000011  -0.0000815  -0.0000327  -0.0000215
   76  -0.0000050   0.0000011   0.0000010  -0.0000000  -0.0000005   0.0000072
   77  -0.0000028   0.0000297  -0.0000010   0.0000023  -0.0000005  -0.0000039
   78  -0.0000041   0.0000286   0.0000050   0.0000033  -0.0000015   0.0000026
   79  -0.0000341   0.0017329  -0.0003333  -0.0006679   0.0007156   0.0034129
   80   0.0001798   0.0000689   0.0001581   0.0000974   0.0011723  -0.0009347
   81   0.0001763  -0.0001889   0.0002301   0.0027201  -0.0009984  -0.0046028
   82   0.0000585   0.0000429  -0.0000155  -0.0000687  -0.0000169  -0.0003010
   83   0.0000134  -0.0001320  -0.0000190   0.0006305   0.0003338   0.0007421
   84  -0.0000015   0.0000725   0.0000159  -0.0005386  -0.0003545  -0.0008095
   85   0.0000051  -0.0000215  -0.0000072   0.0000057   0.0000162   0.0000370
   86   0.0000043  -0.0000020  -0.0000071   0.0000525   0.0000404   0.0000243
   87   0.0000056  -0.0000050   0.0000010   0.0000817   0.0000688   0.0000613
   88  -0.0027269  -0.0007653   0.0000863  -0.0000264  -0.0000311  -0.0000779
   89  -0.0027916  -0.0008387   0.0000949  -0.0000252   0.0000036   0.0000966
   90   0.0002025  -0.0005600   0.0001651   0.0000452  -0.0000255  -0.0000967
   91   0.0000983  -0.0000516   0.0000439   0.0000343  -0.0000235  -0.0000635
   92  -0.0000761   0.0001573  -0.0001019   0.0000398   0.0000011  -0.0000867
   93   0.0000308  -0.0002593  -0.0000481  -0.0000577   0.0000096   0.0000386
   94   0.0000158   0.0000032   0.0000039  -0.0004653  -0.0019802  -0.0022570
   95   0.0000992  -0.0000531  -0.0000587  -0.0011767  -0.0011285  -0.0033997
   96   0.0000027   0.0000368   0.0000005  -0.0012392  -0.0018145  -0.0017413
   97   0.0001053  -0.0000382  -0.0000765   0.0000077   0.0000268  -0.0001146
   98  -0.0001451   0.0003594   0.0000983   0.0000489  -0.0000429   0.0002442
   99   0.0000070   0.0000591   0.0000061   0.0000107  -0.0000245   0.0001274
  100  -0.0000054  -0.0000033  -0.0000010  -0.0000317   0.0000238  -0.0000792
  101  -0.0000114  -0.0000042   0.0000018   0.0000273   0.0000208   0.0000505
  102   0.0000003  -0.0000114  -0.0000015   0.0000531   0.0000523   0.0001025
  103   0.0000034  -0.0000032   0.0000001   0.0000020  -0.0000035   0.0000151
  104  -0.0000068  -0.0000005  -0.0000027  -0.0000002  -0.0000020   0.0000107
  105   0.0000129  -0.0000044   0.0000079   0.0000024  -0.0000028   0.0000103
  106  -0.0000187  -0.0000161   0.0000374   0.0000164  -0.0000202   0.0000800
  107  -0.0001001   0.0000114  -0.0001082  -0.0000392   0.0000530  -0.0002531
  108  -0.0000134   0.0000466  -0.0000388  -0.0000041  -0.0000073   0.0000524
  109  -0.0000153   0.0000177  -0.0000235  -0.0000183   0.0000279  -0.0001099
  110   0.0000744  -0.0000804   0.0000434   0.0000307  -0.0000646   0.0002615
  111   0.0000336  -0.0000222   0.0000013   0.0000039   0.0000002  -0.0000168
  112  -0.0000856   0.0000269  -0.0000297  -0.0000069   0.0000023  -0.0000150
  113   0.0000234   0.0000760   0.0000141   0.0000013   0.0000061  -0.0000199
  114  -0.0000494   0.0000042   0.0000744  -0.0000010   0.0000013  -0.0000001
  115   0.0000039   0.0000065   0.0000104   0.0000087  -0.0000114   0.0000510
  116  -0.0000277   0.0000447  -0.0000265  -0.0000247   0.0000443  -0.0001766
  117  -0.0000126   0.0000242  -0.0000021  -0.0000031   0.0000126  -0.0000499
  118   0.0000124  -0.0000159  -0.0000044  -0.0000002  -0.0000077   0.0000241
  119  -0.0000013  -0.0000010  -0.0000014   0.0000006   0.0000036  -0.0000151
  120   0.0000027  -0.0000118   0.0000026   0.0000003  -0.0000074   0.0000324
  121  -0.0000051   0.0000217  -0.0000036  -0.0000035   0.0000042  -0.0000106
  122  -0.0000059   0.0000150   0.0000044   0.0000008   0.0000078  -0.0000237
  123  -0.0000027   0.0000140   0.0000108  -0.0000004   0.0000066  -0.0000267
  124   0.0000511  -0.0001034   0.0000401   0.0000261   0.0000110   0.0000662
  125  -0.0000949  -0.0000532   0.0000245  -0.0000329  -0.0000302   0.0000325
  126  -0.0000349   0.0002439   0.0000358   0.0000369   0.0000020   0.0000407
  127   0.0009823  -0.0023983  -0.0000817  -0.0000790   0.0000101  -0.0000099
  128  -0.0000469  -0.0016873  -0.0004197  -0.0000540   0.0000231   0.0000302
  129  -0.0001855   0.0000518   0.0002981  -0.0000022   0.0000033  -0.0000236
           25          26          27          28          29          30
    1  -0.0000103  -0.0000027  -0.0000049   0.0000544   0.0000056   0.0000244
    2  -0.0000151   0.0000054  -0.0000287   0.0001260   0.0000023   0.0004368
    3  -0.0000168  -0.0000069   0.0000060   0.0000103   0.0000029  -0.0000479
    4   0.0000166   0.0000043   0.0000084  -0.0000556  -0.0000000  -0.0000591
    5   0.0000129  -0.0000144   0.0000145   0.0000139  -0.0000034  -0.0002588
    6   0.0000160  -0.0000000  -0.0000052  -0.0000237   0.0000001   0.0000027
    7  -0.0000237   0.0000011  -0.0000075  -0.0000296   0.0000114  -0.0000531
    8   0.0000051  -0.0000001   0.0000175  -0.0001123  -0.0000111  -0.0002631
    9  -0.0000136   0.0000135   0.0000122   0.0000926  -0.0000102   0.0004058
   10  -0.0000882   0.0000393  -0.0000021  -0.0005680   0.0010955   0.0000228
   11   0.0002215  -0.0000885  -0.0000722   0.0003508  -0.0003143  -0.0000494
   12   0.0000391   0.0000944  -0.0000528   0.0007141  -0.0006226   0.0000008
   13  -0.0000953   0.0004548  -0.0000116  -0.0001535  -0.0000086   0.0000560
   14   0.0006126  -0.0000737   0.0001619   0.0000621  -0.0000202  -0.0000761
   15   0.0000716  -0.0001632   0.0002478   0.0000437   0.0000504  -0.0001283
   16   0.0013541   0.0014341   0.0006334   0.0002353   0.0000463  -0.0005211
   17  -0.0014929   0.0005772  -0.0002384  -0.0005444  -0.0000586  -0.0003635
   18  -0.0005708   0.0009498   0.0001727  -0.0000567   0.0001848  -0.0000835
   19   0.0003357   0.0000261   0.0002575   0.0000538  -0.0000719  -0.0002669
   20  -0.0002057  -0.0000918  -0.0000581  -0.0001716   0.0000249   0.0005657
   21   0.0001973   0.0001253   0.0000986   0.0001745  -0.0000567  -0.0000468
   22   0.0002553   0.0002167  -0.0005173  -0.0693248   0.0527988  -0.0230093
   23  -0.0000198   0.0005765  -0.0000204   0.0524679  -0.3131535   0.1072241
   24  -0.0001249  -0.0000109   0.0013577  -0.0225022   0.1089213  -0.0967202
   25   0.1154146   0.0883926   0.0847236   0.0064317   0.0117405   0.0101339
   26   0.0883926   0.2010559   0.1380037   0.0027586   0.0039657   0.0055347
   27   0.0847236   0.1380037   0.1893281  -0.0121148  -0.0209982  -0.0188984
   28   0.0064317   0.0027586  -0.0121148   0.6651645  -0.0435284   0.0136982
   29   0.0117405   0.0039657  -0.0209982  -0.0435284   0.6318731  -0.0623754
   30   0.0101339   0.0055347  -0.0188984   0.0136982  -0.0623754   0.5071986
   31  -0.0159774   0.0051065   0.0001363  -0.0166743   0.0012055   0.0084105
   32  -0.0205562   0.0044854   0.0009749  -0.0042162   0.0008955  -0.0016225
   33  -0.0205250   0.0054715   0.0000173   0.0316460  -0.0050920   0.0017992
   34  -0.1061846  -0.0862351  -0.0840331  -0.1064531  -0.0041011   0.0480017
   35  -0.0863934  -0.1965234  -0.1316343  -0.0044283  -0.0922913   0.0182444
   36  -0.0834796  -0.1298336  -0.1800053   0.0475739   0.0151100  -0.1923573
   37   0.0008669   0.0000718  -0.0004676  -0.3673975   0.0424763  -0.0216099
   38   0.0004177   0.0002485  -0.0000089   0.0430746  -0.0630887   0.0049490
   39  -0.0002096  -0.0001287   0.0014883  -0.0187747   0.0046356  -0.0537228
   40   0.0000103  -0.0000034  -0.0000028  -0.0000007  -0.0000005  -0.0000029
   41   0.0000031  -0.0000021  -0.0000025   0.0000068   0.0000001   0.0000214
   42  -0.0000014   0.0000012   0.0000004  -0.0000041   0.0000007  -0.0000107
   43  -0.0003379  -0.0002092   0.0003535   0.0000123   0.0000429  -0.0001293
   44  -0.0000879   0.0002199   0.0000583   0.0000862  -0.0000546   0.0000607
   45   0.0002910   0.0001670   0.0001467  -0.0003358   0.0001351   0.0000399
   46   0.0007984   0.0001810   0.0009449  -0.0061511   0.0007068  -0.0018731
   47   0.0000142  -0.0000892   0.0002529   0.0017663   0.0000786  -0.0001908
   48  -0.0009203   0.0001266   0.0004862  -0.0013943   0.0001286   0.0001856
   49  -0.0045650   0.0022385   0.0004448   0.0050650   0.0018530   0.0031568
   50   0.0020289  -0.0001964  -0.0004072   0.0012105  -0.0008170   0.0018976
   51   0.0012641   0.0000840   0.0004914  -0.0001455  -0.0006910  -0.0028074
   52   0.0005855   0.0001648  -0.0006649   0.0043001   0.0043200  -0.0112942
   53   0.0009811   0.0004055  -0.0011644   0.0080069   0.0046589  -0.0215852
   54   0.0007463   0.0000774  -0.0006274   0.0045923   0.0039775  -0.0123242
   55   0.0002793   0.0000849  -0.0000423  -0.0003355   0.0000033  -0.0002117
   56   0.0001606   0.0000514   0.0000665  -0.0006963   0.0003885  -0.0001816
   57   0.0000967   0.0000326  -0.0001205   0.0017429  -0.0001636   0.0008478
   58  -0.0009265  -0.0006448   0.0028023  -0.0964415  -0.0358776  -0.0190598
   59  -0.0014405   0.0010063   0.0025421  -0.0356153  -0.1488085  -0.0547128
   60   0.0040569   0.0017088  -0.0039954  -0.0252951  -0.0532073  -0.1267217
   61  -0.0003849   0.0001776   0.0003937  -0.0003910   0.0000576  -0.0022802
   62  -0.0010608   0.0004673   0.0001801   0.0001414  -0.0003325  -0.0004071
   63  -0.0015382   0.0004996   0.0002429  -0.0002787   0.0000303  -0.0009309
   64  -0.0000187   0.0000162   0.0000186  -0.0000047   0.0000071  -0.0000087
   65   0.0000075  -0.0000044   0.0000008  -0.0000131   0.0000010  -0.0000384
   66  -0.0000080   0.0000055   0.0000065  -0.0000137   0.0000083   0.0000041
   67  -0.0011145   0.0002385   0.0009651  -0.0200287  -0.0045779  -0.0142179
   68   0.0003716  -0.0002386   0.0001356  -0.0258029  -0.0034623   0.0035390
   69   0.0005591   0.0001220  -0.0002276  -0.0234747   0.0001831   0.0032783
   70   0.0000029  -0.0000016   0.0000028  -0.0000074   0.0000077  -0.0000208
   71  -0.0000043   0.0000021  -0.0000030   0.0000030   0.0000038   0.0000314
   72   0.0000117  -0.0000056  -0.0000015  -0.0000064  -0.0000016  -0.0000267
   73  -0.0000057   0.0000101   0.0000363  -0.0000525  -0.0003056   0.0007056
   74  -0.0000250   0.0000274   0.0000542  -0.0000046  -0.0002584   0.0009046
   75   0.0000022   0.0000003   0.0000363  -0.0000540  -0.0000378   0.0003053
   76  -0.0000019   0.0000005   0.0000013  -0.0000043  -0.0000007  -0.0000227
   77   0.0000037   0.0000004   0.0000003   0.0000008   0.0000010   0.0000081
   78   0.0000033  -0.0000002   0.0000023  -0.0000004  -0.0000005  -0.0000101
   79   0.0036680  -0.0146203   0.0064790   0.0024934  -0.0161312   0.0059154
   80   0.0065083  -0.0159072   0.0123011  -0.0001277  -0.0002229  -0.0017783
   81   0.0051862  -0.0229425   0.0097583  -0.0048680   0.0309830  -0.0138974
   82   0.0002481  -0.0000132  -0.0001870  -0.0037545   0.0018397   0.0025338
   83  -0.0000142  -0.0000848  -0.0002742  -0.0010561   0.0016210  -0.0036292
   84  -0.0000776   0.0000704   0.0002302   0.0030889  -0.0006734   0.0041501
   85   0.0000327   0.0000147  -0.0000251  -0.0006014   0.0004022  -0.0000102
   86   0.0000366  -0.0000152  -0.0000289  -0.0004053   0.0001920  -0.0000413
   87   0.0000132  -0.0000037  -0.0000503  -0.0012766   0.0003466  -0.0001420
   88   0.0001857  -0.0000708  -0.0000997   0.0000802   0.0001098   0.0002473
   89   0.0000324  -0.0000375  -0.0000216  -0.0001407   0.0000551  -0.0003826
   90  -0.0000811   0.0001018   0.0000459   0.0003500  -0.0000266   0.0004280
   91  -0.0001202  -0.0000023   0.0000665  -0.0000140   0.0001253  -0.0001231
   92   0.0001068   0.0000292   0.0000281   0.0000420   0.0001680  -0.0000189
   93   0.0000880  -0.0000772  -0.0000720  -0.0001600  -0.0000930   0.0001055
   94  -0.0000119  -0.0000519  -0.0001162   0.0040891  -0.0139859   0.0014653
   95  -0.0000103   0.0000348  -0.0001371   0.0067585  -0.0213443   0.0044881
   96  -0.0001101   0.0001147  -0.0000082   0.0071058  -0.0205496   0.0011528
   97  -0.0000305   0.0000233  -0.0000185   0.0001346  -0.0000222   0.0003161
   98   0.0000599  -0.0000278   0.0000776  -0.0002748   0.0000051  -0.0007311
   99   0.0000361  -0.0000177   0.0000298  -0.0001449   0.0000065  -0.0003034
  100  -0.0000338   0.0000074   0.0000277   0.0000474  -0.0002341   0.0003249
  101  -0.0000521  -0.0000075   0.0000464   0.0001510  -0.0000135  -0.0000441
  102  -0.0000349  -0.0000029   0.0000061   0.0002561   0.0000691  -0.0003975
  103   0.0000047  -0.0000029   0.0000029  -0.0000083  -0.0000010  -0.0000437
  104   0.0000015  -0.0000016   0.0000009  -0.0000062  -0.0000003  -0.0000279
  105   0.0000022  -0.0000021   0.0000029  -0.0000022  -0.0000011  -0.0000241
  106   0.0000111  -0.0000170   0.0000176  -0.0000061  -0.0000190  -0.0002365
  107  -0.0000601   0.0000436  -0.0000603   0.0001954   0.0000038   0.0007217
  108   0.0000003  -0.0000008   0.0000055  -0.0000432   0.0000174  -0.0001392
  109  -0.0000215   0.0000213  -0.0000223   0.0000365   0.0000151   0.0002977
  110   0.0000654  -0.0000542   0.0000540  -0.0001414  -0.0000160  -0.0006954
  111   0.0000006  -0.0000003  -0.0000003   0.0000252  -0.0000087   0.0000421
  112  -0.0000113   0.0000058  -0.0000085   0.0000271   0.0000005   0.0000608
  113  -0.0000068   0.0000073  -0.0000025   0.0000152  -0.0000000   0.0000526
  114  -0.0000034   0.0000007  -0.0000005   0.0000009   0.0000001   0.0000060
  115   0.0000081  -0.0000074   0.0000116  -0.0000201  -0.0000039  -0.0001374
  116  -0.0000400   0.0000360  -0.0000362   0.0000741   0.0000182   0.0004684
  117  -0.0000127   0.0000105  -0.0000100   0.0000333  -0.0000006   0.0001315
  118   0.0000059  -0.0000062   0.0000030  -0.0000053  -0.0000023  -0.0000604
  119  -0.0000025   0.0000027  -0.0000023   0.0000088  -0.0000006   0.0000386
  120   0.0000080  -0.0000065   0.0000056  -0.0000233   0.0000015  -0.0000831
  121  -0.0000051   0.0000044  -0.0000042   0.0000050   0.0000029   0.0000315
  122  -0.0000059   0.0000068  -0.0000036   0.0000090   0.0000014   0.0000596
  123  -0.0000080   0.0000062  -0.0000040   0.0000186  -0.0000002   0.0000738
  124  -0.0004695   0.0002057   0.0000846   0.0001022   0.0000146  -0.0003277
  125  -0.0002428   0.0001915   0.0002602  -0.0000179   0.0002986   0.0002493
  126   0.0001929  -0.0001031  -0.0001377  -0.0002316  -0.0001658  -0.0003765
  127  -0.0000774  -0.0000122  -0.0000652   0.0001508  -0.0000164   0.0001768
  128  -0.0000483   0.0000119  -0.0000285  -0.0000265   0.0000156  -0.0000220
  129  -0.0000044  -0.0000161  -0.0000086   0.0000572  -0.0000172   0.0000424
           31          32          33          34          35          36
    1  -0.0000386   0.0001389   0.0002715  -0.0000644   0.0000188  -0.0000830
    2   0.0001655   0.0004070   0.0003369  -0.0000546  -0.0001985  -0.0001386
    3   0.0000802  -0.0000884   0.0002048  -0.0000078   0.0000383  -0.0000803
    4  -0.0000956  -0.0000438  -0.0003583   0.0000302   0.0000207   0.0000855
    5  -0.0001369   0.0000713   0.0000196  -0.0001604   0.0002182  -0.0000395
    6  -0.0000254   0.0000333  -0.0001547  -0.0000076  -0.0000318   0.0001016
    7  -0.0000027  -0.0009829   0.0005761   0.0001853  -0.0000226  -0.0000015
    8  -0.0005698  -0.0004839  -0.0005687   0.0001668   0.0000770   0.0001069
    9   0.0003322   0.0013952  -0.0000615  -0.0001354  -0.0001639  -0.0001611
   10   0.0014100   0.0014033  -0.0068410   0.0008981  -0.0006234  -0.0003550
   11  -0.0110727  -0.0099195   0.0293913  -0.0013040   0.0013586   0.0001675
   12  -0.0009060  -0.0019165   0.0001483   0.0001644   0.0002006  -0.0004118
   13   0.0027401   0.0051376   0.0051242   0.0005339   0.0015457   0.0006301
   14  -0.0155254  -0.0195076  -0.0230530  -0.0013817   0.0014162  -0.0005685
   15   0.0041635   0.0047179   0.0048324  -0.0001532   0.0005833   0.0003040
   16  -0.0837826   0.0159525  -0.0017707  -0.0106725   0.0345753  -0.0064313
   17   0.0177933  -0.1709446   0.0189770   0.0091068  -0.0097161   0.0014479
   18  -0.0003382   0.0097313  -0.0806959  -0.0004754  -0.0014815   0.0006880
   19  -0.0013646  -0.0023667  -0.0004980   0.0008697   0.0003021   0.0001268
   20   0.0333567  -0.0081488  -0.0026332  -0.0006827  -0.0060077   0.0013096
   21  -0.0052020   0.0011544  -0.0015797  -0.0001868   0.0014119  -0.0000442
   22   0.0007555  -0.0004426  -0.0004716   0.0026440  -0.0148429   0.0069146
   23   0.0001668  -0.0003068   0.0000613  -0.0003259   0.0012403  -0.0001861
   24  -0.0011903   0.0001179   0.0012221  -0.0081731   0.0307017  -0.0122562
   25  -0.0159774  -0.0205562  -0.0205250  -0.1061846  -0.0863934  -0.0834796
   26   0.0051065   0.0044854   0.0054715  -0.0862351  -0.1965234  -0.1298336
   27   0.0001363   0.0009749   0.0000173  -0.0840331  -0.1316343  -0.1800053
   28  -0.0166743  -0.0042162   0.0316460  -0.1064531  -0.0044283   0.0475739
   29   0.0012055   0.0008955  -0.0050920  -0.0041011  -0.0922913   0.0151100
   30   0.0084105  -0.0016225   0.0017992   0.0480017   0.0182444  -0.1923573
   31   0.4890115  -0.0088672  -0.0079987  -0.1752333   0.0211786  -0.0052923
   32  -0.0088672   0.4617525  -0.0154356   0.0180168  -0.0862929   0.0007078
   33  -0.0079987  -0.0154356   0.4708214  -0.0019793  -0.0001835  -0.0796128
   34  -0.1752333   0.0180168  -0.0019793   0.4984324   0.0201244   0.0461495
   35   0.0211786  -0.0862929  -0.0001835   0.0201244   0.7070738   0.0214834
   36  -0.0052923   0.0007078  -0.0796128   0.0461495   0.0214834   0.5981413
   37   0.0015039  -0.0003983   0.0008951  -0.0101494   0.0019446  -0.0005420
   38  -0.0002820   0.0002985   0.0003411  -0.0042114  -0.0002228   0.0008735
   39   0.0006064   0.0013060  -0.0059486   0.0340382  -0.0053276   0.0017788
   40   0.0000186  -0.0000152  -0.0000374  -0.0000107   0.0000219   0.0000301
   41   0.0000237   0.0000076   0.0000183  -0.0000084   0.0000004   0.0000014
   42  -0.0000198   0.0000107   0.0000010  -0.0000005  -0.0000028  -0.0000044
   43   0.0059331   0.0064751   0.0105530   0.0003260   0.0002971   0.0012879
   44   0.0066572   0.0057015   0.0095841   0.0002070   0.0002139   0.0000681
   45  -0.0138934  -0.0142491  -0.0223218  -0.0009917  -0.0003280   0.0011869
   46  -0.0944310  -0.0119013   0.0317267  -0.0199634  -0.0087859   0.0329479
   47  -0.0115945  -0.0878557   0.0278658   0.0012434   0.0015821  -0.0039489
   48   0.0320772   0.0299255  -0.1578080   0.0096267   0.0010142  -0.0047399
   49  -0.0977922  -0.0119718  -0.0215326  -0.0190592  -0.0198188  -0.0242770
   50  -0.0182198  -0.0868804  -0.0320762  -0.0045140   0.0018298   0.0041940
   51  -0.0264922  -0.0281492  -0.1145111  -0.0070589  -0.0010869  -0.0002407
   52  -0.0003084  -0.0002005  -0.0002815  -0.0014984  -0.0027592  -0.0014004
   53  -0.0008461   0.0001646  -0.0001189  -0.0033160  -0.0039050  -0.0023771
   54  -0.0009152  -0.0000594  -0.0001678  -0.0024057  -0.0023032  -0.0000301
   55  -0.0059653   0.0012413  -0.0023793   0.0005085  -0.0002288   0.0017515
   56  -0.0121035   0.0004079   0.0013221  -0.0000577  -0.0003462   0.0021473
[...]
 -----------------------------------------------------------------
 Calculating analytic gradient of the SCF energy
 Gradient of SCF Energy
            1           2           3           4           5           6
    1   0.0003088  -0.0004274   0.0001872  -0.0001570  -0.0000888   0.0000012
    2  -0.0011790   0.0004504   0.0008317  -0.0001054  -0.0002267   0.0003581
    3   0.0006681  -0.0008890   0.0002373   0.0003387  -0.0002591   0.0000238
            7           8           9          10          11          12
    1   0.0001332   0.0000002  -0.0000518   0.0000861   0.0003948   0.0001768
    2  -0.0000454   0.0002101   0.0000995  -0.0003107  -0.0000145  -0.0004247
    3  -0.0001442  -0.0001304  -0.0000159   0.0000778   0.0001535  -0.0000374
           13          14          15          16          17          18
    1  -0.0000813  -0.0000346  -0.0001119   0.0003756  -0.0000801   0.0000338
    2   0.0001084   0.0002362   0.0000372  -0.0001564   0.0003360   0.0000432
    3   0.0000753  -0.0000421  -0.0001222   0.0001892   0.0002795   0.0001045
           19          20          21          22          23          24
    1  -0.0002170  -0.0002621  -0.0004171   0.0009007  -0.0001069  -0.0003414
    2   0.0000381   0.0002832   0.0001039  -0.0005600  -0.0006014   0.0000521
    3   0.0000514  -0.0000812   0.0002290  -0.0003063  -0.0007758   0.0003934
           25          26          27          28          29          30
    1  -0.0010547  -0.0006070  -0.0001794   0.0010508  -0.0000698   0.0001300
    2   0.0000165   0.0001141   0.0003203   0.0004691   0.0000162  -0.0006159
    3  -0.0004414  -0.0001906  -0.0001429   0.0017994  -0.0002954  -0.0003948
           31          32          33          34          35          36
    1  -0.0000795   0.0001674   0.0002081   0.0003048  -0.0002447  -0.0001449
    2   0.0000800  -0.0001779  -0.0000593  -0.0001680  -0.0001378   0.0001646
    3  -0.0001148   0.0000449   0.0001913  -0.0006940  -0.0002165  -0.0000423
           37          38          39          40          41          42
    1   0.0003148   0.0000294  -0.0010141   0.0004567   0.0004372  -0.0000180
    2   0.0003090   0.0000637  -0.0006157  -0.0001183   0.0005262  -0.0000453
    3   0.0003898   0.0000681  -0.0010135   0.0003253   0.0005935  -0.0000977
           43
    1   0.0000917
    2   0.0002944
    3   0.0002138
 Max gradient component =       1.799E-03
 RMS gradient           =       3.984E-04
 Gradient time:  CPU 26.67 s  wall 2.30 s
    ==================================================
         Total gradient calculations so far = 16
    ==================================================
 ----------------------------------------------------------------
             Standard Nuclear Orientation (Angstroms)
    I     Atom           X                Y                Z
 ----------------------------------------------------------------
    1      Fe     -1.4820341657    -2.9788380568     2.1439963168
    2      O      -1.7853366424    -1.6446401458     1.3823597097
    3      O      -1.4781960591    -0.2524571185     1.7538592739
    4      H       2.3087889915     2.7809071461    -0.1799662448
    5      H       2.6005136424     2.9839226156     1.5829395671
    6      C       2.0075252789     2.4303867951     0.8275308271
    7      H       0.9411725212     2.6883732067     0.9798874157
    8      H       4.2957230611     1.8672059485    -0.7595022855
    9      H       4.3101926023     1.3094781677     1.7462848350
   10      C       4.4893289611     0.8355864687    -0.3972895455
   11      C       2.2812296855     0.8749857470     1.0112731969
   12      C       3.8500005410     0.6167289165     1.0108313893
   13      H       5.5906490186     0.6967786508    -0.3482948756
   14      H      -2.6690391471    -1.1580272805    -0.8190403599
   15      H       2.2923009589     0.9084378337     3.2176868178
   16      C       1.7393257687     0.3746526098     2.4189435273
   17      C       1.5882445178     0.0461110789    -0.1616443490
   18      H       4.0146457592     0.1316167941    -2.4714284108
   19      H       0.6604943107     0.5742094461     2.5592865987
   20      C       3.8983425953    -0.2027955656    -1.4051924750
   21      C       0.1875154731    -0.1282877160    -0.3007655722
   22      C      -2.7988474193    -0.1517319880    -1.2713697434
   23      C       2.4189515184    -0.5673043414    -1.2251854596
   24      H      -2.3217613560    -0.1559978489    -2.2779342410
   25      H       0.8611157828    -1.5321907055    -2.5133026685
   26      H      -3.8826404446     0.0281306470    -1.4133376132
   27      H       4.0527116153    -0.4214403683     1.3543536817
   28      C       1.9198462262    -1.6496213918    -2.2074579583
   29      H       2.0212444430    -2.6423089722    -1.6991982682
   30      C      -0.9370907662     0.5755445816     0.4748182095
   31      H       1.9233205476    -0.7122054075     2.5407440962
   32      H       4.4599238370    -1.1766032426    -1.3654875444
   33      C      -2.1767083169     0.9322041285    -0.3641870965
   34      H       2.5653561609    -1.6703514815    -3.1096965982
   35      H      -4.4414557062     2.1052426795    -1.5946887970
   36      C      -2.7085379030     2.2260151237    -0.2029313735
   37      C      -3.8907184950     2.7573495776    -0.8874921226
   38      H      -2.1918640521     2.9250326621     0.4906633035
   39      C      -4.3351057509     4.0554792509    -0.6696587605
   40      H      -5.2351440693     4.4495634891    -1.1883333774
   41      H      -3.8115698474     4.7437769108     0.0280582106
   42      H      -0.1812581047    -0.7412838580    -1.1493496746
   43      H      -0.5602455722     1.4665550131     1.0352784385
 ----------------------------------------------------------------
 Nuclear Repulsion Energy =  1730.0147761905 hartrees
 There are       82 alpha and       78 beta electrons
 ------------------------------------------------------------------------------
         Vec  Conv   RNorm       Lowest eigenvalues (eV/Hartrees)
 ------------------------------------------------------------------------------
     3     8     2  4.97e-06    -0.00985 (-0.00036)*    0.00148 (0.00005)*
 ------------------------------------------------------------------------------
Lowest eigenvalue(s) (in eV):
-0.00985
0.00148
Tolerance for negative eigenvalues: 1.0e-05

    ==================================================
        Successfully converged to a transition state
                The end of Characterization              
    ==================================================
Total cost of characterization (# gradients):   16
Time spent in characterization:  2.0e+03s (CPU)  165s (wall)

                       Coordinates (Angstroms)
     ATOM                X               Y               Z
      1  Fe       -1.4820341657   -2.9788380568    2.1439963168
      2  O        -1.7853366424   -1.6446401458    1.3823597097
      3  O        -1.4781960591   -0.2524571185    1.7538592739
      4  H         2.3087889915    2.7809071461   -0.1799662448
      5  H         2.6005136424    2.9839226156    1.5829395671
      6  C         2.0075252789    2.4303867951    0.8275308271
      7  H         0.9411725212    2.6883732067    0.9798874157
      8  H         4.2957230611    1.8672059485   -0.7595022855
      9  H         4.3101926023    1.3094781677    1.7462848350
     10  C         4.4893289611    0.8355864687   -0.3972895455
     11  C         2.2812296855    0.8749857470    1.0112731969
     12  C         3.8500005410    0.6167289165    1.0108313893
     13  H         5.5906490186    0.6967786508   -0.3482948756
     14  H        -2.6690391471   -1.1580272805   -0.8190403599
     15  H         2.2923009589    0.9084378337    3.2176868178
     16  C         1.7393257687    0.3746526098    2.4189435273
     17  C         1.5882445178    0.0461110789   -0.1616443490
     18  H         4.0146457592    0.1316167941   -2.4714284108
     19  H         0.6604943107    0.5742094461    2.5592865987
     20  C         3.8983425953   -0.2027955656   -1.4051924750
     21  C         0.1875154731   -0.1282877160   -0.3007655722
     22  C        -2.7988474193   -0.1517319880   -1.2713697434
     23  C         2.4189515184   -0.5673043414   -1.2251854596
     24  H        -2.3217613560   -0.1559978489   -2.2779342410
     25  H         0.8611157828   -1.5321907055   -2.5133026685
     26  H        -3.8826404446    0.0281306470   -1.4133376132
     27  H         4.0527116153   -0.4214403683    1.3543536817
     28  C         1.9198462262   -1.6496213918   -2.2074579583
     29  H         2.0212444430   -2.6423089722   -1.6991982682
     30  C        -0.9370907662    0.5755445816    0.4748182095
     31  H         1.9233205476   -0.7122054075    2.5407440962
     32  H         4.4599238370   -1.1766032426   -1.3654875444
     33  C        -2.1767083169    0.9322041285   -0.3641870965
     34  H         2.5653561609   -1.6703514815   -3.1096965982
     35  H        -4.4414557062    2.1052426795   -1.5946887970
     36  C        -2.7085379030    2.2260151237   -0.2029313735
     37  C        -3.8907184950    2.7573495776   -0.8874921226
     38  H        -2.1918640521    2.9250326621    0.4906633035
     39  C        -4.3351057509    4.0554792509   -0.6696587605
     40  H        -5.2351440693    4.4495634891   -1.1883333774
     41  H        -3.8115698474    4.7437769108    0.0280582106
     42  H        -0.1812581047   -0.7412838580   -1.1493496746
     43  H        -0.5602455722    1.4665550131    1.0352784385

Z-matrix Print:
$molecule
2 5
Fe
O  1 1.565940
O  2 1.473269 1 129.948162
C  3 1.616888 2 110.744895 1 137.527844 0
H  4 1.118046 3 97.144018 2 -167.438370 0
C  4 1.536766 3 114.179563 2 -49.631254 0
H  6 1.109889 4 113.307738 3 93.333630 0
C  6 1.418383 4 128.088428 3 -95.049559 0
C  8 1.482387 6 115.604672 4 -168.334581 0
C  9 1.534232 8 121.750242 6 165.538974 0
H  10 1.123484 9 106.372843 8 -124.951802 0
H  10 1.124834 9 105.758614 8 125.031840 0
C  4 1.538762 3 106.284955 2 78.058498 0
C  13 1.408117 4 117.051478 3 98.476389 0
H  14 1.112048 13 118.262129 4 1.860478 0
C  14 1.465773 13 125.746449 4 -179.004172 0
H  16 1.108459 14 119.040680 13 0.524685 0
C  16 1.389270 14 121.565172 13 -179.514970 0
H  18 1.111033 16 121.155117 14 -179.683240 0
H  18 1.111149 16 121.772857 14 0.226590 0
C  13 1.544330 4 118.825628 3 -78.701058 0
H  21 1.107751 13 110.821780 4 152.190720 0
H  21 1.110893 13 110.458832 4 32.193341 0
H  21 1.113913 13 111.159412 4 -88.088151 0
C  9 1.544466 8 124.415063 6 -16.871637 0
H  25 1.108260 9 114.203316 8 35.457360 0
H  25 1.109571 9 110.013708 8 159.008460 0
H  25 1.119838 9 107.654927 8 -84.197096 0
C  10 1.563128 9 116.534645 8 0.756290 0
H  29 1.110369 10 109.933064 9 -85.811814 0
H  29 1.111114 10 108.674454 9 156.600894 0
C  29 1.561872 10 109.480056 9 35.955688 0
H  32 1.110212 29 109.884507 10 176.549592 0
H  32 1.112158 29 109.552308 10 58.541862 0
C  32 1.589886 29 112.419639 10 -63.257660 0
C  35 1.589191 32 106.592918 29 170.342526 0
H  36 1.106073 35 112.841559 32 175.864550 0
H  36 1.108467 35 108.454879 32 56.313450 0
H  36 1.109031 35 110.441402 32 -61.927242 0
C  35 1.589952 32 109.192030 29 -70.168789 0
H  40 1.107645 35 112.190407 32 -170.975702 0
H  40 1.108456 35 111.567928 32 67.372965 0
H  40 1.108458 35 108.522278 32 -52.027579 0
$end

 
 --------------------------------------------------------------
 
                    Orbital Energies (a.u.)
 --------------------------------------------------------------
 Requested basis set is STO-3G
 There are 65 shells and 132 basis functions
 
 Alpha MOs
 -- Occupied --
******* -29.654 -26.209 -26.207 -26.202 -18.970 -18.951 -10.121
-10.118 -10.091 -10.075 -10.052 -10.043 -10.042 -10.036 -10.032
-10.022 -10.016 -10.016  -9.988  -9.980  -9.980  -9.978  -3.842
 -2.684  -2.680  -2.672  -1.264  -1.078  -1.007  -0.968  -0.937
 -0.920  -0.901  -0.872  -0.853  -0.834  -0.817  -0.805  -0.789
 -0.743  -0.736  -0.725  -0.702  -0.690  -0.677  -0.649  -0.643
 -0.634  -0.626  -0.620  -0.607  -0.602  -0.594  -0.583  -0.578
 -0.576  -0.571  -0.566  -0.565  -0.558  -0.554  -0.549  -0.541
 -0.537  -0.532  -0.516  -0.513  -0.510  -0.510  -0.507  -0.500
 -0.499  -0.488  -0.481  -0.478  -0.472  -0.463  -0.456  -0.450
 -0.418  -0.396
 -- Virtual --
 -0.377  -0.372  -0.294  -0.259  -0.249  -0.225  -0.213  -0.145
 -0.118  -0.045  -0.028  -0.022   0.006   0.013   0.022   0.027
  0.050   0.058   0.066   0.072   0.079   0.087   0.089   0.102
  0.109   0.117   0.124   0.128   0.134   0.140   0.149   0.152
  0.167   0.169   0.178   0.182   0.187   0.193   0.202   0.208
  0.221   0.226   0.237   0.242   0.248   0.259   0.271   0.283
  0.330   0.370
 
 Beta MOs
 -- Occupied --
******* -29.617 -26.177 -26.176 -26.176 -18.970 -18.953 -10.121
-10.118 -10.090 -10.075 -10.053 -10.043 -10.042 -10.036 -10.032
-10.022 -10.018 -10.016  -9.988  -9.980  -9.980  -9.978  -3.646
 -2.499  -2.477  -2.473  -1.265  -1.078  -1.006  -0.969  -0.937
 -0.920  -0.903  -0.872  -0.853  -0.835  -0.817  -0.805  -0.789
 -0.741  -0.737  -0.725  -0.701  -0.688  -0.677  -0.649  -0.641
 -0.633  -0.623  -0.620  -0.606  -0.595  -0.593  -0.579  -0.578
 -0.575  -0.570  -0.566  -0.565  -0.558  -0.551  -0.542  -0.541
 -0.533  -0.523  -0.516  -0.512  -0.505  -0.500  -0.483  -0.478
 -0.471  -0.462  -0.456  -0.442  -0.427  -0.401
 -- Virtual --
 -0.372  -0.337  -0.309  -0.309  -0.306  -0.303  -0.278  -0.266
 -0.231  -0.225  -0.198  -0.149  -0.121  -0.030  -0.021  -0.014
  0.007   0.014   0.022   0.026   0.050   0.058   0.065   0.072
  0.079   0.087   0.089   0.101   0.109   0.117   0.121   0.128
  0.134   0.140   0.147   0.152   0.166   0.169   0.178   0.182
  0.187   0.193   0.202   0.208   0.220   0.226   0.235   0.242
  0.248   0.259   0.271   0.283   0.328   0.368
 --------------------------------------------------------------
 
 A cutoff of  1.0D-11 yielded   1574 shell pairs
 There are      7077 function pairs (      7164 Cartesian)
 Smallest overlap matrix eigenvalue = 2.07E-01
          Ground-State Mulliken Net Atomic Charges

     Atom                 Charge (a.u.)    Spin (a.u.)
  --------------------------------------------------------
      1 Fe                    0.634561       4.384284
      2 O                    -0.189982      -0.122187
      3 O                     0.047762      -0.015589
      4 H                     0.089684      -0.000018
      5 H                     0.108803      -0.000015
      6 C                    -0.213009       0.000437
      7 H                     0.069384      -0.000012
      8 H                     0.097286      -0.000015
      9 H                     0.105567       0.000016
     10 C                    -0.129803       0.000059
     11 C                     0.029711       0.000089
     12 C                    -0.130039      -0.000152
     13 H                     0.115360      -0.000030
     14 H                     0.092012      -0.002489
     15 H                     0.109793      -0.000139
     16 C                    -0.215694      -0.000581
     17 C                     0.021603      -0.002496
     18 H                     0.141199       0.001062
     19 H                     0.067154       0.000055
     20 C                    -0.133707      -0.002092
     21 C                    -0.011864       0.015552
     22 C                    -0.223909       0.002787
     23 C                     0.142624       0.036227
     24 H                     0.112240      -0.007505
     25 H                     0.113611       0.000646
     26 H                     0.118907      -0.000591
     27 H                     0.084535      -0.000029
     28 C                    -0.222884      -0.002282
     29 H                     0.139504       0.001570
     30 C                     0.001279       0.018520
     31 H                     0.081209       0.000024
     32 H                     0.140538       0.002109
     33 C                     0.032508      -0.105122
     34 H                     0.136368       0.000368
     35 H                     0.121767       0.000704
     36 C                    -0.027601      -0.044557
     37 C                    -0.043673      -0.015242
     38 H                     0.113230       0.001892
     39 C                    -0.057373      -0.159488
     40 H                     0.145528       0.006711
     41 H                     0.129045       0.006643
     42 H                     0.119413      -0.000515
     43 H                     0.134958       0.001361
  --------------------------------------------------------
  Sum of atomic charges =     1.997606
  Sum of spin   charges =     3.999966

 -----------------------------------------------------------------
                    Cartesian Multipole Moments
 -----------------------------------------------------------------
    Charge (ESU x 10^10)
                 9.5949
    Dipole Moment (Debye)
         X      -2.5429      Y      -0.6138      Z       0.0818
       Tot       2.6172
    Quadrupole Moments (Debye-Ang)
        XX     -35.7094     XY     -16.8144     YY     -62.3563
        XZ      -8.6139     YZ      -9.8624     ZZ     -89.9347
    Octopole Moments (Debye-Ang^2)
       XXX     -46.8560    XXY      78.6060    XYY    -133.5782
       YYY      -8.7510    XXZ     -84.2888    XYZ      58.7609
       YYZ      -3.3574    XZZ      -3.3979    YZZ     -49.5758
       ZZZ     -83.3774
    Hexadecapole Moments (Debye-Ang^3)
      XXXX   -3789.4246   XXXY    -276.7052   XXYY    -684.7320
      XYYY    -131.1991   YYYY   -1978.8878   XXXZ     109.7995
      XXYZ     -19.3300   XYYZ       8.1858   YYYZ     119.0271
      XXZZ    -923.4861   XYZZ      95.8092   YYZZ    -575.9301
      XZZZ      -8.0798   YZZZ     221.2331   ZZZZ   -1430.8797
 -----------------------------------------------------------------
Archival summary:
1\1\cub-0-16.local\TS\ProcedureUnspecified\STO-3G\e121624(2+,5)\c295_lal\WedNov2812:23:012018WedNov2812:23:012018\0\\#,TS,ProcedureUnspecified,STO-3G,\\2,5\Fe\O,1,1.56594\O,2,1.47327,1,129.948\C,3,1.61689,2,110.745,1,137.528,0\H,4,1.11805,3,97.144,2,-167.438,0\C,4,1.53677,3,114.18,2,-49.6313,0\H,6,1.10989,4,113.308,3,93.3336,0\C,6,1.41838,4,128.088,3,-95.0496,0\C,8,1.48239,6,115.605,4,-168.335,0\C,9,1.53423,8,121.75,6,165.539,0\H,10,1.12348,9,106.373,8,-124.952,0\H,10,1.12483,9,105.759,8,125.032,0\C,4,1.53876,3,106.285,2,78.0585,0\C,13,1.40812,4,117.051,3,98.4764,0\H,14,1.11205,13,118.262,4,1.86048,0\C,14,1.46577,13,125.746,4,-179.004,0\H,16,1.10846,14,119.041,13,0.524685,0\C,16,1.38927,14,121.565,13,-179.515,0\H,18,1.11103,16,121.155,14,-179.683,0\H,18,1.11115,16,121.773,14,0.22659,0\C,13,1.54433,4,118.826,3,-78.7011,0\H,21,1.10775,13,110.822,4,152.191,0\H,21,1.11089,13,110.459,4,32.1933,0\H,21,1.11391,13,111.159,4,-88.0882,0\C,9,1.54447,8,124.415,6,-16.8716,0\H,25,1.10826,9,114.203,8,35.4574,0\H,25,1.10957,9,110.014,8,159.008,0\H,25,1.11984,9,107.655,8,-84.1971,0\C,10,1.56313,9,116.535,8,0.75629,0\H,29,1.11037,10,109.933,9,-85.8118,0\H,29,1.11111,10,108.674,9,156.601,0\C,29,1.56187,10,109.48,9,35.9557,0\H,32,1.11021,29,109.885,10,176.55,0\H,32,1.11216,29,109.552,10,58.5419,0\C,32,1.58989,29,112.42,10,-63.2577,0\C,35,1.58919,32,106.593,29,170.343,0\H,36,1.10607,35,112.842,32,175.865,0\H,36,1.10847,35,108.455,32,56.3134,0\H,36,1.10903,35,110.441,32,-61.9272,0\C,35,1.58995,32,109.192,29,-70.1688,0\H,40,1.10765,35,112.19,32,-170.976,0\H,40,1.10846,35,111.568,32,67.373,0\H,40,1.10846,35,108.522,32,-52.0276,0\\\@

 Total job time:  526.52s(wall), 6267.73s(cpu) 
 Wed Nov 28 12:23:01 2018

        *************************************************************
        *                                                           *
        *  Thank you very much for using Q-Chem.  Have a nice day.  *
        *                                                           *
        *************************************************************


