
Running Job 1 of 1 sys_1_car_1_opt_vdz_mgga.in
qchem sys_1_car_1_opt_vdz_mgga.in_25634.0 /scr/c295_lal/156910/qchem25634/ 1
/usr/software/qchem_511/exe/qcprog.exe_s sys_1_car_1_opt_vdz_mgga.in_25634.0 /scr/c295_lal/156910/qchem25634/
Check license passed

                  Welcome to Q-Chem
     A Quantum Leap Into The Future Of Chemistry


 Q-Chem 5.1, Q-Chem, Inc., Pleasanton, CA (2018)

 Yihan Shao,  Zhengting Gan,  E. Epifanovsky,  A. T. B. Gilbert,  M. Wormit,  
 J. Kussmann,  A. W. Lange,  A. Behn,  Jia Deng,  Xintian Feng,  D. Ghosh,  
 M. Goldey,  P. R. Horn,  L. D. Jacobson,  I. Kaliman,  T. Kus,  A. Landau,  
 Jie Liu,  E. I. Proynov,  R. M. Richard,  R. P. Steele,  E. J. Sundstrom,  
 H. L. Woodcock III,  P. M. Zimmerman,  D. Zuev,  B. Albrecht,  E. Alguire,  
 S. A. Baeppler,  D. Barton,  Z. Benda,  Y. A. Bernard,  E. J. Berquist,  
 K. B. Bravaya,  H. Burton,  D. Casanova,  Chun-Min Chang,  Yunqing Chen,  
 A. Chien,  K. D. Closser,  M. P. Coons,  S. Coriani,  S. Dasgupta,  
 A. L. Dempwolff,  M. Diedenhofen,  Hainam Do,  R. G. Edgar,  Po-Tung Fang,  
 S. Faraji,  S. Fatehi,  Qingguo Feng,  K. D. Fenk,  J. Fosso-Tande,  
 Qinghui Ge,  A. Ghysels,  G. Gidofalvi,  J. Gomes,  J. Gonthier,  A. Gunina,  
 D. Hait,  M. W. D. Hanson-Heine,  P. H. P. Harbach,  A. W. Hauser,  
 J. E. Herr,  E. G. Hohenstein,  Z. C. Holden,  Kerwin Hui,  B. C. Huynh,  
 T.-C. Jagau,  Hyunjun Ji,  B. Kaduk,  K. Khistyaev,  Jaehoon Kim,  
 P. Klunzinger,  K. Koh,  D. Kosenkov,  L. Koulias,  T. Kowalczyk,  
 C. M. Krauter,  A. Kunitsa,  Ka Un Lao,  A. Laurent,  K. V. Lawler,  
 Joonho Lee,  D. Lefrancois,  S. Lehtola,  D. S. Levine,  Yi-Pei Li,  
 You-Sheng Lin,  Fenglai Liu,  E. Livshits,  A. Luenser,  P. Manohar,  
 E. Mansoor,  S. F. Manzer,  Shan-Ping Mao,  Yuezhi Mao,  N. Mardirossian,  
 A. V. Marenich,  T. Markovich,  L. A. Martinez-Martinez,  S. A. Maurer,  
 N. J. Mayhall,  S. C. McKenzie,  J.-M. Mewes,  A. F. Morrison,  
 J. W. Mullinax,  K. Nanda,  T. S. Nguyen-Beck,  R. Olivares-Amaya,  
 J. A. Parkhill,  T. M. Perrine,  F. Plasser,  P. Pokhilko,  S. Prager,  
 A. Prociuk,  E. Ramos,  D. R. Rehn,  F. Rob,  M. Schneider,  N. Sergueev,  
 S. M. Sharada,  S. Sharma,  D. W. Small,  T. Stauch,  T. Stein,  
 Yu-Chuan Su,  A. J. W. Thom,  A. Tkatchenko,  T. Tsuchimochi,  N. M. Tubman,  
 L. Vogt,  M. L. Vidal,  O. Vydrov,  M. A. Watson,  J. Wenzel,  
 M. de Wergifosse,  T. A. Wesolowski,  A. White,  J. Witte,  A. Yamada,  
 Jun Yang,  K. Yao,  S. Yeganeh,  S. R. Yost,  Zhi-Qiang You,  A. Zech,  
 Igor Ying Zhang,  Xing Zhang,  Yan Zhao,  Ying Zhu,  B. R. Brooks,  
 G. K. L. Chan,  C. J. Cramer,  M. S. Gordon,  W. J. Hehre,  A. Klamt,  
 M. W. Schmidt,  C. D. Sherrill,  D. G. Truhlar,  A. Aspuru-Guzik,  R. Baer,  
 A. T. Bell,  N. A. Besley,  Jeng-Da Chai,  A. E. DePrince, III,  
 R. A. DiStasio Jr.,  A. Dreuw,  B. D. Dunietz,  T. R. Furlani,  
 Chao-Ping Hsu,  Yousung Jung,  Jing Kong,  D. S. Lambrecht,  WanZhen Liang,  
 C. Ochsenfeld,  V. A. Rassolov,  L. V. Slipchenko,  J. E. Subotnik,  
 T. Van Voorhis,  J. M. Herbert,  A. I. Krylov,  P. M. W. Gill,  M. Head-Gordon

 Contributors to earlier versions of Q-Chem not listed above: 
 R. D. Adamson,  B. Austin,  J. Baker,  G. J. O. Beran,  K. Brandhorst,  
 S. T. Brown,  E. F. C. Byrd,  A. K. Chakraborty,  C.-L. Cheng,  
 Siu Hung Chien,  D. M. Chipman,  D. L. Crittenden,  H. Dachsel,  
 R. J. Doerksen,  A. D. Dutoi,  L. Fusti-Molnar,  W. A. Goddard III,  
 A. Golubeva-Zadorozhnaya,  S. R. Gwaltney,  G. Hawkins,  A. Heyden,  
 S. Hirata,  G. Kedziora,  F. J. Keil,  C. Kelley,  Jihan Kim,  R. A. King,  
 R. Z. Khaliullin,  P. P. Korambath,  W. Kurlancheek,  A. M. Lee,  M. S. Lee,  
 S. V. Levchenko,  Ching Yeh Lin,  D. Liotard,  R. C. Lochan,  I. Lotan,  
 P. E. Maslen,  N. Nair,  D. P. O'Neill,  D. Neuhauser,  E. Neuscamman,  
 C. M. Oana,  R. Olson,  B. Peters,  R. Peverati,  P. A. Pieniazek,  
 Y. M. Rhee,  J. Ritchie,  M. A. Rohrdanz,  E. Rosta,  N. J. Russ,  
 H. F. Schaefer III,  N. E. Schultz,  N. Shenvi,  A. C. Simmonett,  A. Sodt,  
 D. Stuck,  K. S. Thanthiriwatte,  V. Vanovschi,  Tao Wang,  A. Warshel,  
 C. F. Williams,  Q. Wu,  X. Xu,  W. Zhang

 Please cite Q-Chem as follows:
 Y. Shao et al., Mol. Phys. 113, 184-215 (2015)
 DOI: 10.1080/00268976.2014.952696

 Q-Chem 5.1.1 for Intel X86 EM64T Linux

 Parts of Q-Chem use Armadillo 8.300.2 (Tropical Shenanigans).
 http://arma.sourceforge.net/

 Q-Chem begins on Tue Nov 27 11:25:30 2018  

Host: cub-0-22.local
0

     Scratch files written to /scr/c295_lal/156910/qchem25634//
 Aug318 |scratch|qcdevops|jenkins|workspace|build_RNUM -1
Processing $rem in /usr/software/qchem_511/config/preferences.
 MEM_TOTAL  2000 
Input Ideriv = 2
Curr. Ideriv = -1
Max.  Ideriv = 2
Input Ideriv = 1
Curr. Ideriv = 2
Max.  Ideriv = 1

Checking the input file for inconsistencies... 	...done.

--------------------------------------------------------------
User input:
--------------------------------------------------------------
$molecule
2 5
Fe         0.29287       -0.25576        0.08878
O          0.53560       -1.96218        0.74805
O          0.26827       -3.13685        0.29863
N         -1.56882       -0.66804       -0.22976
C         -2.39863       -1.31300        0.62402
H         -2.16065       -1.66058        1.62244
N         -3.60396       -1.44647        0.03653
H         -4.41965       -1.88098        0.45976
C         -3.56631       -0.89363       -1.23782
H         -4.41991       -0.90693       -1.90388
C         -2.29468       -0.40399       -1.40097
H         -1.85948        0.08398       -2.26416
N          2.19745        0.01228       -0.11522
C          3.17211       -0.79462        0.36699
H          3.03054       -1.68281        0.97106
N          4.36794       -0.31130       -0.02465
H          5.27110       -0.72035        0.19968
C          4.18427        0.83553       -0.78739
H          5.01100        1.38743       -1.21760
C          2.82861        1.03676       -0.84119
H          2.28211        1.81101       -1.36714
N          0.00774        1.74392        0.50832
H          0.92744        2.09498        0.80934
C         -0.58212        2.38033       -0.65487
H          0.00031        2.59636       -1.54472
C         -1.88230        2.63845       -0.34091
H         -2.65550        3.08863       -0.95343
N         -2.16064        2.24930        0.99166
C         -1.06316        1.78085        1.50072
H         -0.90369        1.45331        2.52439
H          3.96830       -6.67179        3.20560
H          4.15730       -8.16639        2.23800
C          3.48220       -7.31939        2.45720
H          2.56990       -7.73289        2.91980
H          5.17140       -5.03699        2.37690
H          5.21180       -6.77849        0.51460
C          4.97570       -4.76399        1.32440
C          3.15730       -6.54449        1.16130
C          4.45610       -5.97269        0.55590
H          5.93810       -4.41959        0.90950
H         -1.39170       -7.06339        3.32950
H          0.71660       -6.87129        2.20370
H          3.32860       -8.27639       -0.15100
C          2.56600       -7.52819        0.13100
C          2.14990       -5.41689        1.47350
H          4.20690       -2.83489        1.97190
H          1.69090       -8.07139        0.52290
C          3.93890       -3.64559        1.26950
C          0.78580       -5.89079        1.71790
C         -1.83610       -7.13449        2.32120
C          2.52620       -4.10339        1.55790
H         -1.29540       -7.94109        1.79440
H          2.12690       -2.21559        2.51500
H         -2.87750       -7.45779        2.44150
H          4.25590       -5.67289       -0.49120
C          1.59060       -2.98399        1.93060
H          0.72840       -3.32889        2.52020
C         -0.38370       -5.29869        1.34140
H          2.25100       -6.99659       -0.78320
H          3.95920       -3.17079        0.26440
C         -1.71460       -5.82889        1.58310
H          1.18790       -2.46639        1.03780
H         -0.34960       -4.35909        0.78230
H         -4.45320       -6.39459        1.74970
C         -2.79800       -5.11429        1.13270
C         -4.19550       -5.45039        1.25910
H         -2.58780       -4.16949        0.61540
C         -5.20320       -4.66749        0.80260
H         -6.25120       -4.95249        0.91330
H         -5.00120       -3.71209        0.30670
$end

$rem
BASIS = VDZ
METHOD  = B97M-rV
JOBTYPE = OPT
MAX_SCF_CYCLES = 500
SCF_ALGORITHM = DIIS_GDM
$end
--------------------------------------------------------------
 ----------------------------------------------------------------
             Standard Nuclear Orientation (Angstroms)
    I     Atom           X                Y                Z
 ----------------------------------------------------------------
    1      Fe     -2.1146239643    -0.7738049020     0.0554070813
    2      O      -0.3548678766    -0.2987935646    -0.2327712373
    3      O       0.5138174799     0.3575218613     0.4512821870
    4      N      -2.5252586951     1.0738521151     0.4489485035
    5      C      -2.1001232291     2.1507345928    -0.2532496815
    6      H      -1.5017333198     2.1417854478    -1.1566533910
    7      N      -2.5599585532     3.2663326621     0.3465599320
    8      H      -2.4022679774     4.2164782311     0.0215525025
    9      C      -3.2899943744     2.9215884077     1.4775845159
   10      H      -3.7371702755     3.6611425512     2.1299181390
   11      C      -3.2706156951     1.5506701986     1.5377163686
   12      H      -3.7088151627     0.8963877604     2.2810241479
   13      N      -1.6583000399    -2.6475295648     0.2030918195
   14      C      -0.4603293120    -3.2022936732    -0.0980379351
   15      H       0.4023063483    -2.6874633731    -0.5037885796
   16      N      -0.5087442062    -4.5189426098     0.1867094558
   17      H       0.2530435135    -5.1789231408     0.0546147709
   18      C      -1.7611310405    -4.8444484180     0.6929694793
   19      H      -2.0217278314    -5.8498208987     1.0003328386
   20      C      -2.4778059699    -3.6750384636     0.7006761345
   21      H      -3.4890235351    -3.5061136435     1.0523182197
   22      N      -3.9467559769    -1.2358302193    -0.7727583163
   23      H      -3.8490188968    -2.1931402007    -1.1384211619
   24      C      -4.9736071872    -1.0249189851     0.2307637448
   25      H      -5.1147898789    -1.7139695523     1.0572039735
   26      C      -5.6490397424     0.1007682485    -0.1329448802
   27      H      -6.4725902235     0.5947283066     0.3704923938
   28      N      -5.1485158251     0.6099727950    -1.3555814660
   29      C      -4.2029329049    -0.1842076437    -1.7533253639
   30      H      -3.6481278855    -0.1263754979    -2.6857738798
   31      H       5.6948600507    -1.4847971988    -1.6461342586
   32      H       6.9285381360    -1.1688039866    -0.3875689677
   33      C       5.9459069402    -0.8501363477    -0.7801304519
   34      H       6.0548584340     0.1842244202    -1.1482332553
   35      H       4.5267126973    -3.2790855566    -1.1741963494
   36      H       5.7525928296    -2.8030323642     1.0105706770
   37      C       4.0014808351    -3.2851125345    -0.2022504113
   38      C       4.8711447965    -0.9464792411     0.3248542589
   39      C       4.7415294259    -2.4084596564     0.8004159911
   40      H       3.9834384511    -4.3357122370     0.1337285573
   41      H       3.9966390452     3.6153738751    -1.6971460595
   42      H       4.4222075629     1.5099269161    -0.6316689458
   43      H       6.2453099082    -0.5513928148     1.9700076109
   44      C       5.3300070809    -0.1096472585     1.5364553100
   45      C       3.5248538038    -0.4204597040    -0.2179250422
   46      H       2.0897615828    -3.2564634730    -1.2396728092
   47      H       5.5566318206     0.9340045153     1.2646390809
   48      C       2.5811777103    -2.7574414911    -0.3841545446
   49      C       3.4711812396     1.0361561257    -0.3610018060
   50      C       3.6938792744     3.9725690033    -0.6971642488
   51      C       2.5026749211    -1.2586498582    -0.5737268087
   52      H       4.5286249824     3.7382535352    -0.0124934122
   53      H       0.8310613384    -1.5306182363    -1.9045201705
   54      H       3.6053964414     5.0647823934    -0.7496012468
   55      H       4.1914372856    -2.4200706076     1.7614791071
   56      C       1.2032635804    -0.7909522911    -1.1738086060
   57      H       1.2943026462     0.1812254108    -1.6803216013
   58      C       2.4118496744     1.8603203426    -0.1188553865
   59      H       4.5521673504    -0.0927992480     2.3189300369
   60      H       1.9667999639    -3.0353790290     0.4997933327
   61      C       2.4212661310     3.3074535991    -0.2474726808
   62      H       0.4082255765    -0.6862501403    -0.4095305662
   63      H       1.4699453771     1.4286363991     0.2319565970
   64      H       1.9031664159     6.0600331936    -0.2982690469
   65      C       1.2705531106     3.9999718886     0.0415720272
   66      C       1.0569192206     5.4258452425    -0.0149271735
   67      H       0.4002162356     3.4072468085     0.3507986001
   68      C      -0.1272392561     6.0221969176     0.2659951143
   69      H      -0.2546611403     7.1052207551     0.2149410167
   70      H      -1.0061727449     5.4347015053     0.5520633452
 ----------------------------------------------------------------
 Molecular Point Group                 C1    NOp =  1
 Largest Abelian Subgroup              C1    NOp =  1
 Nuclear Repulsion Energy =  4338.8349873337 hartrees
 There are      136 alpha and      132 beta electrons
 Requested basis set is VDZ
 There are 246 shells and 390 basis functions

 Total QAlloc Memory Limit   2000 MB
 Mega-Array Size       188 MB
 MEM_STATIC part       192 MB
 A cutoff of  1.0D-12 yielded  19763 shell pairs
 There are     51111 function pairs (     51698 Cartesian)
 
 -------------------------------------------------------
 OpenMP Integral Computing Module                       
 Release: version 1.0, May 2013, Q-Chem Inc. Pittsburgh 
 -------------------------------------------------------
 Integral Job Info:
 Integral job number is                      11
 Integral operator is                         1
 short-range coefficients                     0
 long-range coefficients              100000000
 Omega coefficients                           0
 if combine SR and LR in K                    0
 Integral screening is                        0
 Integral computing path is                   2
 max size of driver memory is            800000
 size of driver memory is                593474
 size of scratch memory is             29634545
 max col of scratch BK array               1296
 max len of scratch array in speh3          155
 max len of scratch index in speh4           18
 max int batch size is                      520
 min int batch size is                       52
 fixed nKL is                                45
 max L of basis functions is                  2
 order of int derivative is                   0
 number of shells is                        246
 number of basis is                         392
 number of cartesian basis is               392
 number of contracted shell pairs         19763
 number of primitive shell pairs          51622
 maxK2 (contraction) of shell pair           36
 max number of K2 of shell pair               1
 max number of CS2 of shell pair           5053
 max number of PS2 of shell pair          11045
 mem total for path MDJ                  688034
 -------------------------------------------------------
 Smallest overlap matrix eigenvalue = 8.71E-04

 Scale SEOQF with 1.000000e-02/1.000000e-02/1.000000e-01

 Standard Electronic Orientation quadrupole field applied
 Nucleus-field energy     =     0.0000000058 hartrees
 Guess from superposition of atomic densities
 Warning:  Energy on first SCF cycle will be non-variational
 SAD guess density has 270.000001 electrons

 -----------------------------------------------------------------------
  General SCF calculation program by
  Eric Jon Sundstrom, Paul Horn, Yuezhi Mao, Dmitri Zuev, Alec White,
  David Stuck, Shaama M.S., Shane Yost, Joonho Lee, David Small,
  Daniel Levine, Susi Lehtola, Hugh Burton, Evgeny Epifanovsky
 -----------------------------------------------------------------------
 Exchange:  B97M-V      Correlation:  B97M-V
 Using SG-2 standard quadrature grid
 Nonlocal Correlation:  rVV10 with C = 0.0100 and b = 6.00 and scale = 1.00000
 Grid used for NLC:  SG-1 standard quadrature
 using 12 threads for integral computing
 -------------------------------------------------------
 OpenMP Integral computing Module                
 Release: version 1.0, May 2013, Q-Chem Inc. Pittsburgh 
 -------------------------------------------------------
 -------------------------------------------------------
 OpenMP BLAS3 based DFT computing Module                
 Release: version 1.0, May 2013, Q-Chem Inc. Pittsburgh 
 -------------------------------------------------------
 -------------------------------------------------------
 OpenMP BLAS3 based DFT computing Module                
 Release: version 1.0, May 2013, Q-Chem Inc. Pittsburgh 
 -------------------------------------------------------
 -------------------------------------------------------
 OpenMP BLAS3 based DFT computing Module                
 Release: version 1.0, May 2013, Q-Chem Inc. Pittsburgh 
 -------------------------------------------------------
 Nonlocal correlation = 0.946871806376
 A unrestricted SCF calculation will be
 performed using DIIS, GDM
 SCF converges when RMS gradient is below 1.0e-08
 ---------------------------------------
  Cycle       Energy         DIIS error
 ---------------------------------------
 Nonlocal correlation = 9.941237307542e-01
    1   -2721.8888743271      2.59e-02  
    2   -2712.6400068382      4.06e-03  Done DIIS. Switching to GDM
 ---------------------------------------
  Cycle       Energy        RMS Gradient
 ---------------------------------------
 Nonlocal correlation = 9.919449397072e-01
    1   -2712.6400068382      8.53e-01   Descent step
 Nonlocal correlation = 9.896635957951e-01
    2   -2713.3783916772      8.05e-01   Descent step
 Nonlocal correlation = 9.862745945566e-01
    3   -2713.6471171967      2.78e-01   Descent step
 Nonlocal correlation = 9.855448371190e-01
    4   -2713.6661509305      3.37e-01   Descent step
 Nonlocal correlation = 9.859209790872e-01
    5   -2713.5888946793      3.45e-01  Line search: overstep
 Nonlocal correlation = 9.835071975300e-01
    6   -2713.7891489603      1.85e-01   Descent step
 Nonlocal correlation = 9.848349109176e-01
    7   -2713.7611149206      6.54e-01  Line search: overstep
 Nonlocal correlation = 9.829218902990e-01
    8   -2713.8479374066      8.21e-02   Descent step
 Nonlocal correlation = 9.842144131319e-01
    9   -2713.7397232637      3.62e-01  Line search: overstep
 Nonlocal correlation = 9.834486002853e-01
   10   -2713.8738186494      1.77e-01   Descent step
 Nonlocal correlation = 9.840628313584e-01
   11   -2713.5079753218      1.28e+00  Line search: overstep
 Nonlocal correlation = 9.825437361251e-01
   12   -2713.8925888310      6.77e-02   Descent step
 Nonlocal correlation = 9.833751341146e-01
   13   -2713.9195550187      4.63e-01   Descent step
 Nonlocal correlation = 9.826736323411e-01
   14   -2713.4899684420      1.41e+00  Line search: overstep
 Nonlocal correlation = 9.831873607981e-01
   15   -2713.9497689779      3.22e-02   Normal BFGS step
 Nonlocal correlation = 9.829743569202e-01
   16   -2713.9524676701      6.27e-02   Normal BFGS step
 Nonlocal correlation = 9.830053677233e-01
   17   -2713.9566681750      5.30e-02   Normal BFGS step
 Nonlocal correlation = 9.835463102153e-01
   18   -2713.9568289170      6.80e-02   Normal BFGS step
 Nonlocal correlation = 9.829657375659e-01
   19   -2713.9599592237      4.96e-02   Normal BFGS step
 Nonlocal correlation = 9.830924619118e-01
   20   -2713.9617075674      1.92e-02   Normal BFGS step
 Nonlocal correlation = 9.832797765547e-01
   21   -2713.9638054017      1.36e-02   Normal BFGS step
 Nonlocal correlation = 9.832520757557e-01
   22   -2713.9641027042      1.99e-02   Normal BFGS step
 Nonlocal correlation = 9.830979846367e-01
   23   -2713.9648900799      9.00e-03   Normal BFGS step
 Nonlocal correlation = 9.831787034449e-01
   24   -2713.9648619852      1.09e-02  Line search: overstep
 Nonlocal correlation = 9.831813685348e-01
   25   -2713.9650227497      8.85e-03   Normal BFGS step
 Nonlocal correlation = 9.832410072855e-01
   26   -2713.9651238994      4.21e-03   Normal BFGS step
 Nonlocal correlation = 9.832279366783e-01
   27   -2713.9651769193      1.70e-03   Normal BFGS step
 Nonlocal correlation = 9.832021833613e-01
   28   -2713.9652053130      2.35e-03   Normal BFGS step
 Nonlocal correlation = 9.832235303676e-01
   29   -2713.9652116534      1.09e-03   Normal BFGS step
 Nonlocal correlation = 9.832218974565e-01
   30   -2713.9652190148      8.07e-04   Normal BFGS step
 Nonlocal correlation = 9.832195395436e-01
   31   -2713.9652205627      9.49e-04   Normal BFGS step
 Nonlocal correlation = 9.832141678251e-01
   32   -2713.9652229948      6.30e-04   Normal BFGS step
 Nonlocal correlation = 9.832205973279e-01
   33   -2713.9652237287      3.86e-04   Normal BFGS step
 Nonlocal correlation = 9.832254930381e-01
   34   -2713.9652243722      1.43e-03   Normal BFGS step
 Nonlocal correlation = 9.832216264976e-01
   35   -2713.9652180773      4.18e-03  Line search: overstep
 Nonlocal correlation = 9.832181810088e-01
   36   -2713.9652248542      2.55e-04   Normal BFGS step
 Nonlocal correlation = 9.832173891022e-01
   37   -2713.9652249931      1.69e-04   Normal BFGS step
 Nonlocal correlation = 9.832185068003e-01
   38   -2713.9652253216      1.55e-04   Normal BFGS step
 Nonlocal correlation = 9.832189630359e-01
   39   -2713.9652253291      2.05e-04   Normal BFGS step
 Nonlocal correlation = 9.832183097527e-01
   40   -2713.9652253813      1.94e-04   Normal BFGS step
 Nonlocal correlation = 9.832186990226e-01
   41   -2713.9652253347      2.02e-04  Line search: overstep
 Nonlocal correlation = 9.832178517068e-01
   42   -2713.9652254211      7.05e-05   Normal BFGS step
 Nonlocal correlation = 9.832181111001e-01
   43   -2713.9652254334      4.10e-05   Normal BFGS step
 Nonlocal correlation = 9.832185431686e-01
   44   -2713.9652254464      3.50e-05   Normal BFGS step
 Nonlocal correlation = 9.832183534024e-01
   45   -2713.9652254510      3.08e-05   Normal BFGS step
 Nonlocal correlation = 9.832179891666e-01
   46   -2713.9652254583      2.08e-05   Normal BFGS step
 Nonlocal correlation = 9.832181118583e-01
   47   -2713.9652254609      1.67e-05   Normal BFGS step
 Nonlocal correlation = 9.832183078637e-01
   48   -2713.9652254632      1.04e-05   Normal BFGS step
 Nonlocal correlation = 9.832182038156e-01
   49   -2713.9652254631      7.85e-06   Normal BFGS step
 Nonlocal correlation = 9.832181040163e-01
   50   -2713.9652254642      8.88e-06   Normal BFGS step
 Nonlocal correlation = 9.832181883441e-01
   51   -2713.9652254640      1.24e-05   Normal BFGS step
 Nonlocal correlation = 9.832181840492e-01
   52   -2713.9652254643      3.53e-06   Normal BFGS step
 Nonlocal correlation = 9.832181820120e-01
   53   -2713.9652254643      4.11e-06   Normal BFGS step
 Nonlocal correlation = 9.832181796651e-01
   54   -2713.9652254644      1.69e-06   Normal BFGS step
 Nonlocal correlation = 9.832181843206e-01
   55   -2713.9652254644      2.64e-06   Normal BFGS step
 Nonlocal correlation = 9.832181891874e-01
   56   -2713.9652254644      3.81e-06   Normal BFGS step
 Nonlocal correlation = 9.832181850538e-01
   57   -2713.9652254643      2.04e-05   Normal BFGS step
 Nonlocal correlation = 9.832181815116e-01
   58   -2713.9652254644      7.08e-07   Normal BFGS step
 Nonlocal correlation = 9.832181848232e-01
   59   -2713.9652254644      1.48e-06   Normal BFGS step
 Nonlocal correlation = 9.832181850343e-01
   60   -2713.9652254644      4.22e-07   Normal BFGS step
 Nonlocal correlation = 9.832181844177e-01
   61   -2713.9652254644      1.03e-06   Normal BFGS step
 Nonlocal correlation = 9.832181847861e-01
   62   -2713.9652254644      3.18e-07   Normal BFGS step
 Nonlocal correlation = 9.832181850621e-01
   63   -2713.9652254644      6.09e-07   Normal BFGS step
 Nonlocal correlation = 9.832181843690e-01
   64   -2713.9652254644      8.55e-08   Normal BFGS step
 Nonlocal correlation = 9.832181847232e-01
   65   -2713.9652254644      1.78e-07   Normal BFGS step
 Nonlocal correlation = 9.832181848572e-01
   66   -2713.9652254644      5.66e-08   Normal BFGS step
 Nonlocal correlation = 9.832181849627e-01
   67   -2713.9652254644      8.41e-08   Normal BFGS step
 Nonlocal correlation = 9.832181845571e-01
   68   -2713.9652254644      2.76e-08   Normal BFGS step
  /scratch/qcdevops/jenkins/workspace/build_qchem_linux_distrib/tags/qc511/qchem/libgscf/libgscf/opt/gdm.C::WARNING energy changes are now smaller than effective accuracy.
  /scratch/qcdevops/jenkins/workspace/build_qchem_linux_distrib/tags/qc511/qchem/libgscf/libgscf/opt/gdm.C::        calculation will continue, but THRESH should be increased
  /scratch/qcdevops/jenkins/workspace/build_qchem_linux_distrib/tags/qc511/qchem/libgscf/libgscf/opt/gdm.C::        or SCF_CONVERGENCE decreased. 
  /scratch/qcdevops/jenkins/workspace/build_qchem_linux_distrib/tags/qc511/qchem/libgscf/libgscf/opt/gdm.C::        effective_thresh = 6.86e-09
 Nonlocal correlation = 9.832181846986e-01
   69   -2713.9652254644      2.30e-08   Normal BFGS step
 Nonlocal correlation = 9.832181849447e-01
   70   -2713.9652254644      2.30e-08   Normal BFGS step
  /scratch/qcdevops/jenkins/workspace/build_qchem_linux_distrib/tags/qc511/qchem/libgscf/libgscf/opt/gdm.C::WARNING energy changes are now smaller than effective accuracy.
  /scratch/qcdevops/jenkins/workspace/build_qchem_linux_distrib/tags/qc511/qchem/libgscf/libgscf/opt/gdm.C::        calculation will continue, but THRESH should be increased
  /scratch/qcdevops/jenkins/workspace/build_qchem_linux_distrib/tags/qc511/qchem/libgscf/libgscf/opt/gdm.C::        or SCF_CONVERGENCE decreased. 
  /scratch/qcdevops/jenkins/workspace/build_qchem_linux_distrib/tags/qc511/qchem/libgscf/libgscf/opt/gdm.C::        effective_thresh = 9.96e-09
 Nonlocal correlation = 9.832181848343e-01
   71   -2713.9652254644      1.80e-08   Normal BFGS step
 Nonlocal correlation = 9.832181845741e-01
   72   -2713.9652254644      8.87e-09  Convergence criterion met
 ---------------------------------------
 SCF time:   CPU 204806.13s  wall 17152.00s 
<S^2> =          6.067811329
 SCF   energy in the final basis set =    -2713.9652254644
 Total energy in the final basis set =    -2713.9652254644
 
 --------------------------------------------------------------
 
                    Orbital Energies (a.u.)
 --------------------------------------------------------------
 
 Alpha MOs
 -- Occupied --
******* -30.347 -26.088 -26.075 -26.073 -19.463 -19.343 -14.649
-14.640 -14.636 -14.611 -14.597 -14.562 -10.506 -10.498 -10.483
-10.466 -10.459 -10.456 -10.450 -10.444 -10.437 -10.433 -10.428
-10.407 -10.403 -10.402 -10.401 -10.397 -10.397 -10.392 -10.391
-10.385 -10.368 -10.358 -10.356 -10.345 -10.342  -3.784  -2.539
 -2.514  -2.503  -1.478  -1.262  -1.248  -1.227  -1.117  -1.103
 -1.095  -1.046  -1.038  -1.007  -0.983  -0.971  -0.968  -0.967
 -0.957  -0.942  -0.916  -0.891  -0.854  -0.852  -0.847  -0.838
 -0.829  -0.827  -0.817  -0.816  -0.811  -0.794  -0.792  -0.789
 -0.774  -0.760  -0.759  -0.743  -0.732  -0.711  -0.699  -0.690
 -0.685  -0.679  -0.669  -0.666  -0.662  -0.657  -0.653  -0.652
 -0.649  -0.646  -0.641  -0.640  -0.636  -0.634  -0.630  -0.623
 -0.622  -0.614  -0.612  -0.589  -0.588  -0.586  -0.580  -0.575
 -0.572  -0.567  -0.561  -0.554  -0.552  -0.544  -0.535  -0.533
 -0.531  -0.521  -0.519  -0.512  -0.510  -0.509  -0.505  -0.501
 -0.500  -0.491  -0.489  -0.481  -0.477  -0.469  -0.467  -0.465
 -0.464  -0.459  -0.451  -0.445  -0.430  -0.416  -0.401  -0.388
 -- Virtual --
 -0.354  -0.279  -0.272  -0.264  -0.249  -0.227  -0.211  -0.210
 -0.204  -0.195  -0.178  -0.175  -0.168  -0.158  -0.152  -0.145
 -0.137  -0.133  -0.128  -0.120  -0.116  -0.112  -0.109  -0.103
 -0.101  -0.096  -0.094  -0.090  -0.088  -0.082  -0.080  -0.077
 -0.074  -0.068  -0.066  -0.061  -0.059  -0.058  -0.053  -0.047
 -0.044  -0.041  -0.035  -0.030  -0.024  -0.016  -0.013  -0.010
 -0.007  -0.006  -0.002   0.005   0.007   0.010   0.013   0.017
  0.022   0.024   0.030   0.035   0.045   0.050   0.061   0.066
  0.072   0.077   0.078   0.090   0.102   0.108   0.112   0.118
  0.123   0.131   0.134   0.140   0.145   0.154   0.159   0.165
  0.171   0.173   0.180   0.194   0.199   0.207   0.216   0.224
  0.244   0.249   0.249   0.253   0.258   0.260   0.265   0.270
  0.275   0.277   0.280   0.285   0.288   0.292   0.296   0.301
  0.306   0.307   0.312   0.317   0.319   0.322   0.324   0.332
  0.339   0.343   0.346   0.352   0.354   0.361   0.369   0.375
  0.391   0.392   0.401   0.410   0.413   0.414   0.424   0.425
  0.432   0.434   0.441   0.442   0.449   0.455   0.459   0.463
  0.467   0.471   0.477   0.478   0.484   0.486   0.488   0.491
  0.493   0.497   0.501   0.504   0.509   0.510   0.513   0.517
  0.519   0.523   0.526   0.527   0.529   0.531   0.537   0.539
  0.546   0.549   0.556   0.558   0.559   0.560   0.565   0.570
  0.572   0.575   0.577   0.585   0.590   0.595   0.596   0.601
  0.606   0.613   0.616   0.621   0.623   0.630   0.635   0.636
  0.646   0.654   0.661   0.671   0.680   0.683   0.692   0.698
  0.706   0.712   0.724   0.726   0.735   0.739   0.751   0.761
  0.771   0.780   0.786   0.789   0.803   0.814   0.821   0.828
  0.845   0.851   0.856   0.877   0.878   0.891   0.901   0.921
  0.925   0.933   0.939   0.945   0.958   0.972   0.978   0.983
  1.001   1.009   1.018   1.028   1.040   1.059   1.063   1.067
  1.077   1.088   1.102   1.120   1.135   1.154   1.157   1.178
  1.185   1.204   1.221   1.226   1.255   1.260   1.302   1.323
  1.352   1.372   1.379   1.481   1.510   1.568
 
 Beta MOs
 -- Occupied --
******* -30.273 -26.020 -26.016 -26.013 -19.461 -19.337 -14.649
-14.640 -14.636 -14.610 -14.597 -14.562 -10.506 -10.498 -10.483
-10.466 -10.459 -10.456 -10.450 -10.444 -10.437 -10.432 -10.429
-10.407 -10.403 -10.402 -10.400 -10.397 -10.397 -10.392 -10.390
-10.384 -10.368 -10.358 -10.356 -10.345 -10.342  -3.612  -2.347
 -2.340  -2.335  -1.474  -1.261  -1.247  -1.226  -1.116  -1.102
 -1.094  -1.045  -1.030  -1.005  -0.982  -0.970  -0.967  -0.966
 -0.956  -0.941  -0.914  -0.889  -0.852  -0.851  -0.847  -0.837
 -0.828  -0.827  -0.816  -0.814  -0.810  -0.793  -0.791  -0.788
 -0.773  -0.759  -0.758  -0.742  -0.727  -0.709  -0.693  -0.687
 -0.681  -0.674  -0.667  -0.663  -0.661  -0.654  -0.651  -0.650
 -0.648  -0.645  -0.639  -0.638  -0.635  -0.631  -0.628  -0.621
 -0.614  -0.611  -0.599  -0.589  -0.587  -0.585  -0.578  -0.574
 -0.567  -0.562  -0.561  -0.552  -0.537  -0.534  -0.533  -0.530
 -0.520  -0.519  -0.514  -0.510  -0.504  -0.501  -0.498  -0.489
 -0.476  -0.469  -0.467  -0.466  -0.464  -0.458  -0.451  -0.446
 -0.425  -0.409  -0.399  -0.387
 -- Virtual --
 -0.363  -0.348  -0.321  -0.303  -0.275  -0.273  -0.257  -0.245
 -0.239  -0.224  -0.209  -0.205  -0.199  -0.191  -0.178  -0.173
 -0.165  -0.156  -0.151  -0.142  -0.135  -0.129  -0.124  -0.118
 -0.115  -0.111  -0.106  -0.103  -0.098  -0.093  -0.093  -0.088
 -0.087  -0.080  -0.079  -0.076  -0.072  -0.066  -0.065  -0.060
 -0.058  -0.057  -0.052  -0.046  -0.042  -0.038  -0.033  -0.029
 -0.023  -0.015  -0.011  -0.007  -0.005  -0.004   0.005   0.005
  0.011   0.013   0.018   0.020   0.023   0.026   0.031   0.037
  0.046   0.052   0.063   0.066   0.073   0.078   0.080   0.092
  0.104   0.110   0.113   0.119   0.124   0.132   0.136   0.143
  0.146   0.156   0.160   0.167   0.172   0.175   0.184   0.195
  0.201   0.209   0.218   0.225   0.246   0.249   0.250   0.254
  0.259   0.262   0.266   0.273   0.276   0.278   0.283   0.286
  0.291   0.293   0.298   0.302   0.309   0.309   0.315   0.318
  0.321   0.324   0.325   0.333   0.341   0.345   0.347   0.354
  0.356   0.362   0.371   0.377   0.393   0.395   0.402   0.411
  0.415   0.418   0.425   0.427   0.433   0.437   0.442   0.443
  0.452   0.456   0.462   0.467   0.469   0.473   0.478   0.480
  0.486   0.488   0.489   0.492   0.495   0.498   0.503   0.505
  0.510   0.511   0.516   0.518   0.520   0.524   0.527   0.528
  0.530   0.533   0.538   0.540   0.547   0.551   0.556   0.559
  0.561   0.563   0.568   0.571   0.576   0.577   0.580   0.587
  0.595   0.596   0.599   0.604   0.613   0.614   0.618   0.623
  0.626   0.632   0.638   0.641   0.647   0.655   0.663   0.673
  0.681   0.687   0.695   0.700   0.710   0.718   0.729   0.730
  0.741   0.743   0.753   0.765   0.774   0.785   0.789   0.793
  0.805   0.817   0.827   0.839   0.849   0.855   0.874   0.883
  0.890   0.900   0.913   0.929   0.934   0.940   0.946   0.956
  0.964   0.974   0.982   0.991   1.011   1.011   1.022   1.033
  1.053   1.063   1.070   1.075   1.083   1.092   1.112   1.123
  1.143   1.158   1.160   1.184   1.200   1.219   1.237   1.257
  1.269   1.279   1.313   1.338   1.358   1.394   1.410   1.497
  1.535   1.577
 --------------------------------------------------------------
 
          Ground-State Mulliken Net Atomic Charges

     Atom                 Charge (a.u.)    Spin (a.u.)
  --------------------------------------------------------
      1 Fe                    1.271238       3.411274
      2 O                    -0.195123       0.046439
      3 O                    -0.371675       0.193663
      4 N                    -0.698159       0.016646
      5 C                     0.338428       0.019359
      6 H                     0.167452      -0.000392
      7 N                    -0.451495       0.004823
      8 H                     0.312557       0.001052
      9 C                     0.104321       0.002433
     10 H                     0.167508       0.000243
     11 C                     0.104958       0.000475
     12 H                     0.147203       0.000470
     13 N                    -0.706295       0.016547
     14 C                     0.291207       0.023064
     15 H                     0.157450      -0.000311
     16 N                    -0.435821       0.003713
     17 H                     0.312422       0.000487
     18 C                     0.127545       0.002483
     19 H                     0.177248       0.000288
     20 C                     0.038742       0.004097
     21 H                     0.150693       0.000405
     22 N                    -0.734419       0.015091
     23 H                     0.329802       0.000426
     24 C                     0.004263      -0.006585
     25 H                     0.171405       0.000153
     26 C                     0.073710       0.029125
     27 H                     0.163433      -0.001303
     28 N                    -0.266229       0.003674
     29 C                     0.184726       0.018515
     30 H                     0.178571      -0.000948
     31 H                     0.131693       0.000052
     32 H                     0.152247      -0.000196
     33 C                    -0.224517      -0.000128
     34 H                     0.135732       0.000174
     35 H                     0.137633      -0.000101
     36 H                     0.141179       0.000845
     37 C                    -0.129554       0.001760
     38 C                    -0.417202       0.002426
     39 C                    -0.130241       0.000372
     40 H                     0.126741      -0.000027
     41 H                     0.154362      -0.000017
     42 H                     0.134385      -0.001463
     43 H                     0.149767      -0.000678
     44 C                    -0.192044       0.000162
     45 C                     0.107397      -0.021557
     46 H                     0.130190       0.001063
     47 H                     0.125040      -0.000084
     48 C                    -0.259405      -0.007642
     49 C                    -0.076471       0.050966
     50 C                    -0.256715       0.001460
     51 C                    -0.043866       0.074274
     52 H                     0.159324       0.000406
     53 H                     0.129153       0.004768
     54 H                     0.151602       0.000276
     55 H                     0.114287      -0.000085
     56 C                    -0.279625      -0.072537
     57 H                     0.183210       0.005047
     58 C                    -0.061317       0.045019
     59 H                     0.124530      -0.000115
     60 H                     0.138926       0.003883
     61 C                    -0.096492      -0.014677
     62 H                     0.169020       0.008060
     63 H                     0.118348      -0.003673
     64 H                     0.135156       0.001137
     65 C                    -0.129574       0.078996
     66 C                    -0.038957      -0.039572
     67 H                     0.103173      -0.004888
     68 C                    -0.182594       0.091355
     69 H                     0.170159      -0.005127
     70 H                     0.079655      -0.005340
  --------------------------------------------------------
  Sum of atomic charges =     2.000000
  Sum of spin   charges =     4.000000

 -----------------------------------------------------------------
                    Cartesian Multipole Moments
 -----------------------------------------------------------------
    Charge (ESU x 10^10)
                 9.6064
    Dipole Moment (Debye)
         X      -5.1242      Y      -3.6376      Z      -0.0657
       Tot       6.2844
    Quadrupole Moments (Debye-Ang)
        XX     -94.0298     XY       6.2207     YY     -68.6369
        XZ     -15.3271     YZ      -0.0922     ZZ    -200.4541
    Octopole Moments (Debye-Ang^2)
       XXX     -30.8026    XXY     -54.6349    XYY     -75.8901
       YYY      -1.3038    XXZ      82.0552    XYZ     -34.7872
       YYZ      37.3708    XZZ     -53.8362    YZZ     -16.8536
       ZZZ      -1.3725
    Hexadecapole Moments (Debye-Ang^3)
      XXXX  -11345.6581   XXXY     130.1226   XXYY   -3118.8826
      XYYY     162.2327   YYYY   -5436.0428   XXXZ    -380.2321
      XXYZ      60.3972   XYYZ    -206.9885   YYYZ    -132.0440
      XXZZ   -2353.4286   XYZZ       0.9869   YYZZ   -1724.1444
      XZZZ     -14.1360   YZZZ      28.8732   ZZZZ    -958.7669
 -----------------------------------------------------------------
 Calculating analytic gradient of the SCF energy
 Gradient of SCF Energy
            1           2           3           4           5           6
    1   0.0069836   0.3225352  -0.0422047   0.0047915   0.0041905   0.0002500
    2  -0.0102759  -0.0493837  -0.1706005  -0.0201160   0.0106044   0.0010109
    3  -0.0065324  -0.0138842  -0.2059162  -0.0065823  -0.0042823  -0.0004477
            7           8           9          10          11          12
    1   0.0013543   0.0019705   0.0014286   0.0001219  -0.0052014  -0.0001832
    2  -0.0073803   0.0029884  -0.0011388  -0.0003885  -0.0044109   0.0006649
    3  -0.0011506  -0.0003801  -0.0022648   0.0006477   0.0045384   0.0010875
           13          14          15          16          17          18
    1  -0.0069990   0.0146443   0.0126629  -0.0020254   0.0011038  -0.0003521
    2   0.0227880  -0.0040864   0.0070026   0.0090157  -0.0008318   0.0027600
    3  -0.0043178  -0.0027907  -0.0036658  -0.0007392  -0.0001188  -0.0004383
           19          20          21          22          23          24
    1  -0.0006521  -0.0048420  -0.0003132   0.0261167  -0.0007831  -0.0041866
    2  -0.0003642  -0.0012889  -0.0000169   0.0016748  -0.0019405   0.0027876
    3   0.0004852   0.0009182   0.0004138   0.0154859  -0.0013161   0.0060697
           25          26          27          28          29          30
    1  -0.0006891  -0.0013969  -0.0005137   0.0052523  -0.0018359  -0.0002915
    2  -0.0002272  -0.0039395  -0.0000490  -0.0048397   0.0128955   0.0000097
    3   0.0001332   0.0041943   0.0000458  -0.0048889  -0.0057862  -0.0005369
           31          32          33          34          35          36
    1  -0.0012011   0.0024222  -0.0006983  -0.0006560   0.0006070   0.0022368
    2  -0.0002510  -0.0005580  -0.0002310   0.0007172   0.0006777  -0.0012744
    3   0.0001435   0.0001658   0.0037818  -0.0005085  -0.0003767   0.0008212
           37          38          39          40          41          42
    1  -0.0047687  -0.0040714   0.0034399   0.0006996   0.0004049  -0.0027772
    2   0.0001149   0.0029187   0.0023583  -0.0013913  -0.0011423   0.0029668
    3   0.0011211   0.0053262  -0.0005116   0.0010520  -0.0004150  -0.0053751
           43          44          45          46          47          48
    1   0.0016095   0.0027236  -0.0283897  -0.0032447  -0.0007080  -0.0027803
    2  -0.0001055  -0.0043266  -0.0511312  -0.0001596   0.0009647   0.0036983
    3   0.0016086  -0.0012905  -0.0144048   0.0018442  -0.0003933  -0.0043392
           49          50          51          52          53          54
    1  -0.0145645   0.0010346   0.0763146   0.0008367   0.0040073  -0.0016998
    2   0.0250761  -0.0019780   0.0158269  -0.0009267   0.0005480   0.0009866
    3   0.0027893   0.0011024   0.0230177   0.0000471   0.0008943   0.0002910
           55          56          57          58          59          60
    1  -0.0008142  -0.2184530   0.0051007   0.0092610  -0.0006067  -0.0082817
    2   0.0001850   0.0685875   0.0028520  -0.0325839   0.0000947  -0.0007698
    3  -0.0005231   0.1647894  -0.0065485  -0.0021900  -0.0005137  -0.0034728
           61          62          63          64          65          66
    1  -0.0221209  -0.1232251  -0.0097185   0.0013983   0.0137277  -0.0089577
    2   0.0120817   0.1768492  -0.0110416   0.0002386  -0.0067709   0.0050489
    3   0.0072358   0.0602504   0.0018833  -0.0005586  -0.0039333   0.0026927
           67          68          69          70
    1  -0.0003154   0.0026226   0.0001294  -0.0014783
    2   0.0014513  -0.0019919   0.0009278  -0.0014669
    3  -0.0015178   0.0008643  -0.0005554  -0.0022752
 Max gradient component =       3.225E-01
 RMS gradient           =       3.946E-02
 Gradient time:  CPU 4646.59 s  wall 727.64 s
 Geometry Optimization Parameters
   NAtoms,    NIC,     NZ,  NCons,   NDum,   NFix, NCnnct, MaxDiis
       70     567       0       0       0       0       0       0


** GEOMETRY OPTIMIZATION IN DELOCALIZED INTERNAL COORDINATES **
   Searching for a Minimum

   Optimization Cycle:   1

                       Coordinates (Angstroms)
     ATOM                X               Y               Z
      1  Fe       -2.1146239643   -0.7738049020    0.0554070813
      2  O        -0.3548678766   -0.2987935646   -0.2327712373
      3  O         0.5138174799    0.3575218613    0.4512821870
      4  N        -2.5252586951    1.0738521151    0.4489485035
      5  C        -2.1001232291    2.1507345928   -0.2532496815
      6  H        -1.5017333198    2.1417854478   -1.1566533910
      7  N        -2.5599585532    3.2663326621    0.3465599320
      8  H        -2.4022679774    4.2164782311    0.0215525025
      9  C        -3.2899943744    2.9215884077    1.4775845159
     10  H        -3.7371702755    3.6611425512    2.1299181390
     11  C        -3.2706156951    1.5506701986    1.5377163686
     12  H        -3.7088151627    0.8963877604    2.2810241479
     13  N        -1.6583000399   -2.6475295648    0.2030918195
     14  C        -0.4603293120   -3.2022936732   -0.0980379351
     15  H         0.4023063483   -2.6874633731   -0.5037885796
     16  N        -0.5087442062   -4.5189426098    0.1867094558
     17  H         0.2530435135   -5.1789231408    0.0546147709
     18  C        -1.7611310405   -4.8444484180    0.6929694793
     19  H        -2.0217278314   -5.8498208987    1.0003328386
     20  C        -2.4778059699   -3.6750384636    0.7006761345
     21  H        -3.4890235351   -3.5061136435    1.0523182197
     22  N        -3.9467559769   -1.2358302193   -0.7727583163
     23  H        -3.8490188968   -2.1931402007   -1.1384211619
     24  C        -4.9736071872   -1.0249189851    0.2307637448
     25  H        -5.1147898789   -1.7139695523    1.0572039735
     26  C        -5.6490397424    0.1007682485   -0.1329448802
     27  H        -6.4725902235    0.5947283066    0.3704923938
     28  N        -5.1485158251    0.6099727950   -1.3555814660
     29  C        -4.2029329049   -0.1842076437   -1.7533253639
     30  H        -3.6481278855   -0.1263754979   -2.6857738798
     31  H         5.6948600507   -1.4847971988   -1.6461342586
     32  H         6.9285381360   -1.1688039866   -0.3875689677
     33  C         5.9459069402   -0.8501363477   -0.7801304519
     34  H         6.0548584340    0.1842244202   -1.1482332553
     35  H         4.5267126973   -3.2790855566   -1.1741963494
     36  H         5.7525928296   -2.8030323642    1.0105706770
     37  C         4.0014808351   -3.2851125345   -0.2022504113
     38  C         4.8711447965   -0.9464792411    0.3248542589
     39  C         4.7415294259   -2.4084596564    0.8004159911
     40  H         3.9834384511   -4.3357122370    0.1337285573
     41  H         3.9966390452    3.6153738751   -1.6971460595
     42  H         4.4222075629    1.5099269161   -0.6316689458
     43  H         6.2453099082   -0.5513928148    1.9700076109
     44  C         5.3300070809   -0.1096472585    1.5364553100
     45  C         3.5248538038   -0.4204597040   -0.2179250422
     46  H         2.0897615828   -3.2564634730   -1.2396728092
     47  H         5.5566318206    0.9340045153    1.2646390809
     48  C         2.5811777103   -2.7574414911   -0.3841545446
     49  C         3.4711812396    1.0361561257   -0.3610018060
     50  C         3.6938792744    3.9725690033   -0.6971642488
     51  C         2.5026749211   -1.2586498582   -0.5737268087
     52  H         4.5286249824    3.7382535352   -0.0124934122
     53  H         0.8310613384   -1.5306182363   -1.9045201705
     54  H         3.6053964414    5.0647823934   -0.7496012468
     55  H         4.1914372856   -2.4200706076    1.7614791071
     56  C         1.2032635804   -0.7909522911   -1.1738086060
     57  H         1.2943026462    0.1812254108   -1.6803216013
     58  C         2.4118496744    1.8603203426   -0.1188553865
     59  H         4.5521673504   -0.0927992480    2.3189300369
     60  H         1.9667999639   -3.0353790290    0.4997933327
     61  C         2.4212661310    3.3074535991   -0.2474726808
     62  H         0.4082255765   -0.6862501403   -0.4095305662
     63  H         1.4699453771    1.4286363991    0.2319565970
     64  H         1.9031664159    6.0600331936   -0.2982690469
     65  C         1.2705531106    3.9999718886    0.0415720272
     66  C         1.0569192206    5.4258452425   -0.0149271735
     67  H         0.4002162356    3.4072468085    0.3507986001
     68  C        -0.1272392561    6.0221969176    0.2659951143
     69  H        -0.2546611403    7.1052207551    0.2149410167
     70  H        -1.0061727449    5.4347015053    0.5520633452
   Point Group: c1    Number of degrees of freedom:   204


   Energy is  -2713.965225464


 Attempting to Generate Delocalized Internal Coordinates

204 Hessian modes will be used to form the next step
  Hessian Eigenvalues:
     0.002000    0.002000    0.002000    0.002000    0.002590    0.003296
     0.003578    0.005278    0.008193    0.008200    0.008417    0.008556
     0.009583    0.010480    0.010942    0.010952    0.011033    0.012154
     0.013150    0.013860    0.015327    0.015413    0.015487    0.016733
     0.016942    0.017446    0.018441    0.018588    0.019320    0.019333
     0.020047    0.020473    0.020518    0.020749    0.021137    0.021364
     0.021527    0.021783    0.021812    0.022120    0.022150    0.022549
     0.023079    0.023129    0.023961    0.025875    0.027190    0.028322
     0.028323    0.029355    0.030301    0.031602    0.042804    0.044833
     0.048001    0.049644    0.051748    0.051867    0.051949    0.053409
     0.053925    0.054166    0.054936    0.055418    0.056401    0.059574
     0.069234    0.070349    0.072885    0.072970    0.074246    0.078870
     0.079623    0.083790    0.089038    0.097409    0.098468    0.109129
     0.121727    0.129186    0.131236    0.133328    0.134963    0.135870
     0.159693    0.159801    0.159832    0.159837    0.159906    0.159958
     0.159975    0.159978    0.159980    0.159993    0.159995    0.159998
     0.159999    0.159999    0.159999    0.160000    0.160000    0.160000
     0.160000    0.160000    0.160000    0.160000    0.160000    0.160000
     0.160000    0.160000    0.160000    0.168645    0.178683    0.179120
     0.182753    0.187252    0.189897    0.213465    0.219998    0.220000
     0.220000    0.220001    0.220014    0.220078    0.228105    0.228200
     0.228449    0.228910    0.231606    0.231650    0.249487    0.249669
     0.249764    0.249992    0.249998    0.249999    0.272046    0.278039
     0.281266    0.283125    0.288284    0.293596    0.305119    0.317806
     0.318884    0.324114    0.328747    0.330668    0.330825    0.331258
     0.331420    0.331568    0.331620    0.332061    0.332240    0.333043
     0.333197    0.333348    0.333935    0.334595    0.336835    0.339640
     0.340110    0.340142    0.340794    0.342161    0.342625    0.343665
     0.346183    0.352132    0.353696    0.354811    0.355322    0.355574
     0.355829    0.356195    0.356496    0.356587    0.363932    0.364773
     0.378717    0.391910    0.410046    0.412328    0.414804    0.428686
     0.433988    0.444639    0.444842    0.448955    0.449011    0.473702
     0.473975    0.494316    0.496416    0.502572    0.521597    0.521785
     0.526817    0.527112    0.537796    0.538531    0.539131    0.646954

 Minimum Search - Taking Simple RFO Step
 Searching for Lamda that Minimizes Along All modes
 Value Taken    Lamda =  -0.33267525
 Calculated Step too Large.  Step scaled by  0.391706
 Step Taken.  Stepsize is  0.300000

                             Maximum     Tolerance    Cnvgd?
         Gradient           0.220997      0.000300      NO
         Displacement       0.157303      0.001200      NO
         Energy change     *********      0.000001      NO


 New Cartesian Coordinates Obtained by Inverse Iteration

 Displacement from previous Coordinates is:  6.806404
 ----------------------------------------------------------------
             Standard Nuclear Orientation (Angstroms)
    I     Atom           X                Y                Z
 ----------------------------------------------------------------
    1      Fe     -2.3203533772    -0.9759363540     0.0673759305
    2      O      -0.5722527870    -0.3865189261    -0.2073482961
    3      O       0.2372812261     0.3416534502     0.5288098248
    4      N      -2.8209324504     0.8592237214     0.4571681937
    5      C      -2.4405638269     1.9519085360    -0.2419918768
    6      H      -1.8343040165     1.9675603893    -1.1398605188
    7      N      -2.9579074355     3.0481979793     0.3494619275
    8      H      -2.8422468210     4.0028072262     0.0225312832
    9      C      -3.6814258395     2.6730980136     1.4744048912
   10      H      -4.1693717225     3.3923517867     2.1201439498
   11      C      -3.5972432463     1.3046925707     1.5367628225
   12      H      -4.0114941000     0.6314548107     2.2766823767
   13      N      -1.7795953952    -2.8391321596     0.2303982652
   14      C      -0.5646578342    -3.3583919849    -0.0483551136
   15      H       0.2819469873    -2.8203011639    -0.4457425653
   16      N      -0.5694819830    -4.6754744690     0.2449826171
   17      H       0.2160770163    -5.3092411257     0.1273667857
   18      C      -1.8155828477    -5.0390385513     0.7364408159
   19      H      -2.0471936389    -6.0500635707     1.0477760308
   20      C      -2.5687309165    -3.8925055402     0.7242651270
   21      H      -3.5897975701    -3.7551304719     1.0604581400
   22      N      -4.1217979444    -1.5490167509    -0.7874959389
   23      H      -3.9642006054    -2.4997009551    -1.1478223928
   24      C      -5.1704039010    -1.3941478428     0.2007823515
   25      H      -5.2816263876    -2.0874883877     1.0280749574
   26      C      -5.9049710647    -0.3094841421    -0.1750376122
   27      H      -6.7612056333     0.1381910821     0.3167706359
   28      N      -5.4200624453     0.2231249484    -1.3922433327
   29      C      -4.4254277300    -0.5193042333    -1.7737340875
   30      H      -3.8623696833    -0.4336459603    -2.6989574395
   31      H       5.6065537976    -1.3539093883    -1.6875482250
   32      H       6.8520957505    -1.0398634300    -0.4414291691
   33      C       5.8646974545    -0.7228803894    -0.8210985059
   34      H       5.9660192235     0.3133888135    -1.1852613684
   35      H       4.4784659677    -3.1470148251    -1.2145419647
   36      H       5.7138457666    -2.6768213537     0.9593083527
   37      C       3.9627206869    -3.1673132450    -0.2379444349
   38      C       4.8038037354    -0.8285150819     0.2976088158
   39      C       4.6967397284    -2.2924650135     0.7642884298
   40      H       3.9610357006    -4.2203348803     0.0891506462
   41      H       4.4058398159     3.5950121505    -1.6950714686
   42      H       4.4957050392     1.5356705544    -0.6043498435
   43      H       6.1916611315    -0.4333680647     1.9294646644
   44      C       5.2694629740     0.0053577467     1.5092592434
   45      C       3.4493875187    -0.2956290368    -0.2247734112
   46      H       2.0489694696    -3.1600202767    -1.2562001093
   47      H       5.4868533197     1.0516713615     1.2412512278
   48      C       2.5377589846    -2.6573540908    -0.4013475051
   49      C       3.4984489660     1.1661318469    -0.3379729898
   50      C       4.1762698372     4.0010157270    -0.6945272865
   51      C       2.4140554226    -1.1570025281    -0.5816170213
   52      H       4.9668377525     3.6342786906    -0.0160048321
   53      H       0.7628899851    -1.5408810211    -1.8997476220
   54      H       4.2713423729     5.0920507398    -0.7525251869
   55      H       4.1587127207    -2.3176712741     1.7319201085
   56      C       1.0869818363    -0.7784560731    -1.1684176678
   57      H       1.1140855666     0.1968536826    -1.6723545376
   58      C       2.5668975154     2.1348560187    -0.0915400476
   59      H       4.5004568274     0.0129874901     2.3005332598
   60      H       1.9438161459    -2.9552008071     0.4892636597
   61      C       2.8151239157     3.5578864687    -0.2295616598
   62      H       0.2521532372    -0.7326064761    -0.3867016331
   63      H       1.5745726236     1.8610421616     0.2662305373
   64      H       2.7822894530     6.3496378726    -0.2994915959
   65      C       1.7999176017     4.4380322227     0.0665199431
   66      C       1.8412362943     5.8777353353    -0.0004521023
   67      H       0.8443432704     4.0057534801     0.3906985723
   68      C       0.7863130703     6.6784693505     0.2901266373
   69      H       0.8537952424     7.7661846734     0.2310932789
   70      H      -0.1784532507     6.2602973424     0.5949821889
 ----------------------------------------------------------------
 Molecular Point Group                 C1    NOp =  1
 Largest Abelian Subgroup              C1    NOp =  1
 Nuclear Repulsion Energy =  4239.3058148151 hartrees
 There are      136 alpha and      132 beta electrons
 Applying Cartesian multipole field
    Component          Value
    ---------          -----
     (2,0,0)        1.00000E-12
     (0,2,0)        2.00000E-12
     (0,0,2)       -3.00000E-11
 Nucleus-field energy     =     0.0000000076 hartrees
 Requested basis set is VDZ
 There are 246 shells and 390 basis functions
 A cutoff of  1.0D-12 yielded  18936 shell pairs
 There are     48830 function pairs (     49380 Cartesian)
 Smallest overlap matrix eigenvalue = 9.36E-04
 Guess MOs from SCF MO coefficient file

 -----------------------------------------------------------------------
  General SCF calculation program by
  Eric Jon Sundstrom, Paul Horn, Yuezhi Mao, Dmitri Zuev, Alec White,
  David Stuck, Shaama M.S., Shane Yost, Joonho Lee, David Small,
  Daniel Levine, Susi Lehtola, Hugh Burton, Evgeny Epifanovsky
 -----------------------------------------------------------------------
 Exchange:  B97M-V      Correlation:  B97M-V
 Using SG-2 standard quadrature grid
 Nonlocal Correlation:  rVV10 with C = 0.0100 and b = 6.00 and scale = 1.00000
 Grid used for NLC:  SG-1 standard quadrature
 using 12 threads for integral computing
 -------------------------------------------------------
 OpenMP Integral computing Module                
 Release: version 1.0, May 2013, Q-Chem Inc. Pittsburgh 
 -------------------------------------------------------
 -------------------------------------------------------
 OpenMP BLAS3 based DFT computing Module                
 Release: version 1.0, May 2013, Q-Chem Inc. Pittsburgh 
 -------------------------------------------------------
 -------------------------------------------------------
 OpenMP BLAS3 based DFT computing Module                
 Release: version 1.0, May 2013, Q-Chem Inc. Pittsburgh 
 -------------------------------------------------------
 -------------------------------------------------------
 OpenMP BLAS3 based DFT computing Module                
 Release: version 1.0, May 2013, Q-Chem Inc. Pittsburgh 
 -------------------------------------------------------
 Nonlocal correlation = 0.988454424976
 A unrestricted SCF calculation will be
 performed using DIIS, GDM
 SCF converges when RMS gradient is below 1.0e-08
 ---------------------------------------
  Cycle       Energy         DIIS error
 ---------------------------------------
 Nonlocal correlation = 9.875274112198e-01
    1   -2713.9522091453      8.38e-04  
    2   -2713.8888666891      1.39e-03  Done DIIS. Switching to GDM
 ---------------------------------------
  Cycle       Energy        RMS Gradient
 ---------------------------------------
 Nonlocal correlation = 9.868974601599e-01
    1   -2713.8888666891      4.63e-01   Descent step
 Nonlocal correlation = 9.880607683712e-01
    2   -2713.9024972824      3.63e-01   Descent step
 Nonlocal correlation = 9.874346303297e-01
    3   -2713.8798722012      4.64e-01  Line search: overstep
 Nonlocal correlation = 9.883034104789e-01
    4   -2714.0136225232      8.05e-02   Normal BFGS step
 Nonlocal correlation = 9.884394963285e-01
    5   -2714.0262306407      1.62e-01   Normal BFGS step
 Nonlocal correlation = 9.883447455922e-01
    6   -2714.0097343939      1.62e-01  Line search: overstep
 Nonlocal correlation = 9.877043060935e-01
    7   -2714.0378910449      9.01e-02   Normal BFGS step
 Nonlocal correlation = 9.880618452549e-01
    8   -2714.0352762693      1.19e-01  Line search: overstep
 Nonlocal correlation = 9.880450782547e-01
    9   -2714.0431667324      2.83e-02   Normal BFGS step
 Nonlocal correlation = 9.880570051460e-01
   10   -2714.0427187219      3.68e-02  Line search: overstep
 Nonlocal correlation = 9.880932480735e-01
   11   -2714.0446065742      1.57e-02   Normal BFGS step
 Nonlocal correlation = 9.881133734165e-01
   12   -2714.0447393555      2.40e-02   Normal BFGS step
 Nonlocal correlation = 9.880963896068e-01
   13   -2714.0451568067      1.29e-02   Normal BFGS step
 Nonlocal correlation = 9.881099450865e-01
   14   -2714.0452029143      8.88e-03   Normal BFGS step
 Nonlocal correlation = 9.881456827554e-01
   15   -2714.0452521415      7.75e-03   Normal BFGS step
 Nonlocal correlation = 9.881141010844e-01
   16   -2714.0452835573      4.93e-03   Normal BFGS step
 Nonlocal correlation = 9.881088798328e-01
   17   -2714.0453183660      3.09e-03   Normal BFGS step
 Nonlocal correlation = 9.881240590961e-01
   18   -2714.0453300306      4.01e-03   Normal BFGS step
 Nonlocal correlation = 9.881208557935e-01
   19   -2714.0453407098      1.63e-03   Normal BFGS step
 Nonlocal correlation = 9.881149337748e-01
   20   -2714.0453441477      1.46e-03   Normal BFGS step
 Nonlocal correlation = 9.881131490889e-01
   21   -2714.0453490786      5.78e-04   Normal BFGS step
 Nonlocal correlation = 9.881171471842e-01
   22   -2714.0453516066      7.76e-04   Normal BFGS step
 Nonlocal correlation = 9.881145697237e-01
   23   -2714.0453531788      4.73e-04   Normal BFGS step
 Nonlocal correlation = 9.881141857750e-01
   24   -2714.0453532839      4.44e-04   Normal BFGS step
 Nonlocal correlation = 9.881149705986e-01
   25   -2714.0453539491      1.10e-04   Normal BFGS step
 Nonlocal correlation = 9.881158301462e-01
   26   -2714.0453539492      1.32e-04   Normal BFGS step
 Nonlocal correlation = 9.881141201333e-01
   27   -2714.0453540882      1.35e-04   Normal BFGS step
 Nonlocal correlation = 9.881153898926e-01
   28   -2714.0453539318      8.33e-04  Line search: overstep
 Nonlocal correlation = 9.881138357736e-01
   29   -2714.0453541096      1.14e-04   Normal BFGS step
 Nonlocal correlation = 9.881144510025e-01
   30   -2714.0453541043      2.08e-04   Normal BFGS step
 Nonlocal correlation = 9.881158070958e-01
   31   -2714.0453541628      6.71e-05   Normal BFGS step
 Nonlocal correlation = 9.881149069496e-01
   32   -2714.0453541417      1.75e-04  Line search: overstep
 Nonlocal correlation = 9.881153292289e-01
   33   -2714.0453541700      3.64e-05   Normal BFGS step
 Nonlocal correlation = 9.881152327234e-01
   34   -2714.0453541761      3.16e-05   Normal BFGS step
 Nonlocal correlation = 9.881149628084e-01
   35   -2714.0453541834      4.09e-05   Normal BFGS step
 Nonlocal correlation = 9.881149992876e-01
   36   -2714.0453541823      4.73e-05   Normal BFGS step
 Nonlocal correlation = 9.881152106268e-01
   37   -2714.0453541867      1.93e-05   Normal BFGS step
 Nonlocal correlation = 9.881151331663e-01
   38   -2714.0453541852      2.78e-05   Normal BFGS step
 Nonlocal correlation = 9.881150886369e-01
   39   -2714.0453541873      9.21e-06   Normal BFGS step
 Nonlocal correlation = 9.881150819683e-01
   40   -2714.0453541868      1.24e-05   Normal BFGS step
 Nonlocal correlation = 9.881151416808e-01
   41   -2714.0453541876      3.49e-06   Normal BFGS step
 Nonlocal correlation = 9.881151262812e-01
   42   -2714.0453541876      3.44e-06   Normal BFGS step
 Nonlocal correlation = 9.881150964476e-01
   43   -2714.0453541877      1.82e-06   Normal BFGS step
 Nonlocal correlation = 9.881150901294e-01
   44   -2714.0453541877      1.90e-06   Normal BFGS step
 Nonlocal correlation = 9.881151296726e-01
   45   -2714.0453541877      3.52e-06   Normal BFGS step
 Nonlocal correlation = 9.881151248074e-01
   46   -2714.0453541877      1.90e-06   Normal BFGS step
 Nonlocal correlation = 9.881150953628e-01
   47   -2714.0453541877      6.63e-07   Normal BFGS step
 Nonlocal correlation = 9.881151112126e-01
   48   -2714.0453541878      2.87e-06   Normal BFGS step
 Nonlocal correlation = 9.881151338889e-01
   49   -2714.0453541877      5.22e-06   Normal BFGS step
 Nonlocal correlation = 9.881151132083e-01
   50   -2714.0453541877      3.00e-06   Normal BFGS step
 Nonlocal correlation = 9.881151034449e-01
   51   -2714.0453541877      1.10e-06   Normal BFGS step
 Nonlocal correlation = 9.881151177130e-01
   52   -2714.0453541877      1.61e-06   Normal BFGS step
 Nonlocal correlation = 9.881151160841e-01
   53   -2714.0453541877      1.49e-06   Normal BFGS step
 Nonlocal correlation = 9.881151133664e-01
   54   -2714.0453541877      2.08e-06   Normal BFGS step
 Nonlocal correlation = 9.881151129141e-01
   55   -2714.0453541877      4.10e-07   Normal BFGS step
 Nonlocal correlation = 9.881151139351e-01
   56   -2714.0453541877      5.61e-07   Normal BFGS step
 Nonlocal correlation = 9.881151140574e-01
   57   -2714.0453541877      1.97e-07   Normal BFGS step
 Nonlocal correlation = 9.881151136635e-01
   58   -2714.0453541877      5.05e-07   Normal BFGS step
 Nonlocal correlation = 9.881151141104e-01
   59   -2714.0453541877      5.90e-08   Normal BFGS step
  /scratch/qcdevops/jenkins/workspace/build_qchem_linux_distrib/tags/qc511/qchem/libgscf/libgscf/opt/gdm.C::WARNING energy changes are now smaller than effective accuracy.
  /scratch/qcdevops/jenkins/workspace/build_qchem_linux_distrib/tags/qc511/qchem/libgscf/libgscf/opt/gdm.C::        calculation will continue, but THRESH should be increased
  /scratch/qcdevops/jenkins/workspace/build_qchem_linux_distrib/tags/qc511/qchem/libgscf/libgscf/opt/gdm.C::        or SCF_CONVERGENCE decreased. 
  /scratch/qcdevops/jenkins/workspace/build_qchem_linux_distrib/tags/qc511/qchem/libgscf/libgscf/opt/gdm.C::        effective_thresh = 6.86e-09
 Nonlocal correlation = 9.881151137327e-01
   60   -2714.0453541877      1.20e-07   Normal BFGS step
 Nonlocal correlation = 9.881151138833e-01
   61   -2714.0453541877      3.07e-08   Normal BFGS step
 Nonlocal correlation = 9.881151137649e-01
   62   -2714.0453541878      6.82e-08   Normal BFGS step
 Nonlocal correlation = 9.881151138052e-01
   63   -2714.0453541877      1.10e-08   Normal BFGS step
  /scratch/qcdevops/jenkins/workspace/build_qchem_linux_distrib/tags/qc511/qchem/libgscf/libgscf/opt/gdm.C::WARNING energy changes are now smaller than effective accuracy.
  /scratch/qcdevops/jenkins/workspace/build_qchem_linux_distrib/tags/qc511/qchem/libgscf/libgscf/opt/gdm.C::        calculation will continue, but THRESH should be increased
  /scratch/qcdevops/jenkins/workspace/build_qchem_linux_distrib/tags/qc511/qchem/libgscf/libgscf/opt/gdm.C::        or SCF_CONVERGENCE decreased. 
  /scratch/qcdevops/jenkins/workspace/build_qchem_linux_distrib/tags/qc511/qchem/libgscf/libgscf/opt/gdm.C::        effective_thresh = 6.86e-09
 Nonlocal correlation = 9.881151137617e-01
   64   -2714.0453541877      1.58e-08   Normal BFGS step
 Nonlocal correlation = 9.881151137512e-01
   65   -2714.0453541877      1.32e-08   Normal BFGS step
  /scratch/qcdevops/jenkins/workspace/build_qchem_linux_distrib/tags/qc511/qchem/libgscf/libgscf/opt/gdm.C::WARNING energy changes are now smaller than effective accuracy.
  /scratch/qcdevops/jenkins/workspace/build_qchem_linux_distrib/tags/qc511/qchem/libgscf/libgscf/opt/gdm.C::        calculation will continue, but THRESH should be increased
  /scratch/qcdevops/jenkins/workspace/build_qchem_linux_distrib/tags/qc511/qchem/libgscf/libgscf/opt/gdm.C::        or SCF_CONVERGENCE decreased. 
  /scratch/qcdevops/jenkins/workspace/build_qchem_linux_distrib/tags/qc511/qchem/libgscf/libgscf/opt/gdm.C::        effective_thresh = 6.86e-09
 Nonlocal correlation = 9.881151137843e-01
   66   -2714.0453541877      2.75e-08   Normal BFGS step
 Nonlocal correlation = 9.881151136633e-01
   67   -2714.0453541877      1.82e-08   Normal BFGS step
  /scratch/qcdevops/jenkins/workspace/build_qchem_linux_distrib/tags/qc511/qchem/libgscf/libgscf/opt/gdm.C::WARNING energy changes are now smaller than effective accuracy.
  /scratch/qcdevops/jenkins/workspace/build_qchem_linux_distrib/tags/qc511/qchem/libgscf/libgscf/opt/gdm.C::        calculation will continue, but THRESH should be increased
  /scratch/qcdevops/jenkins/workspace/build_qchem_linux_distrib/tags/qc511/qchem/libgscf/libgscf/opt/gdm.C::        or SCF_CONVERGENCE decreased. 
  /scratch/qcdevops/jenkins/workspace/build_qchem_linux_distrib/tags/qc511/qchem/libgscf/libgscf/opt/gdm.C::        effective_thresh = 6.86e-09
 Nonlocal correlation = 9.881151137416e-01
   68   -2714.0453541877      1.05e-07   Normal BFGS step
 Nonlocal correlation = 9.881151137842e-01
   69   -2714.0453541877      5.36e-09  Convergence criterion met
 ---------------------------------------
 SCF time:   CPU 194258.98s  wall 16265.00s 
<S^2> =          6.092248050
 SCF   energy in the final basis set =    -2714.0453541877
 Total energy in the final basis set =    -2714.0453541877
 
 --------------------------------------------------------------
 
                    Orbital Energies (a.u.)
 --------------------------------------------------------------
 
 Alpha MOs
 -- Occupied --
******* -30.336 -26.077 -26.065 -26.063 -19.449 -19.340 -14.644
-14.634 -14.629 -14.605 -14.589 -14.556 -10.501 -10.490 -10.477
-10.461 -10.454 -10.450 -10.442 -10.436 -10.431 -10.430 -10.428
-10.405 -10.401 -10.399 -10.397 -10.394 -10.390 -10.387 -10.384
-10.383 -10.362 -10.355 -10.354 -10.343 -10.340  -3.773  -2.526
 -2.503  -2.494  -1.426  -1.257  -1.240  -1.222  -1.112  -1.095
 -1.089  -1.036  -1.012  -1.005  -0.977  -0.966  -0.960  -0.959
 -0.951  -0.936  -0.905  -0.879  -0.851  -0.846  -0.842  -0.830
 -0.826  -0.823  -0.810  -0.810  -0.805  -0.788  -0.785  -0.779
 -0.765  -0.754  -0.753  -0.737  -0.710  -0.694  -0.685  -0.680
 -0.673  -0.670  -0.663  -0.657  -0.655  -0.652  -0.648  -0.645
 -0.644  -0.639  -0.635  -0.633  -0.629  -0.628  -0.627  -0.617
 -0.615  -0.610  -0.606  -0.585  -0.584  -0.580  -0.576  -0.574
 -0.565  -0.562  -0.555  -0.547  -0.545  -0.536  -0.533  -0.531
 -0.523  -0.517  -0.517  -0.506  -0.504  -0.503  -0.501  -0.498
 -0.497  -0.485  -0.482  -0.474  -0.473  -0.464  -0.463  -0.461
 -0.457  -0.453  -0.446  -0.438  -0.420  -0.409  -0.398  -0.384
 -- Virtual --
 -0.350  -0.275  -0.266  -0.258  -0.239  -0.222  -0.208  -0.204
 -0.197  -0.189  -0.175  -0.168  -0.164  -0.153  -0.146  -0.136
 -0.135  -0.132  -0.127  -0.118  -0.113  -0.111  -0.107  -0.101
 -0.098  -0.093  -0.090  -0.085  -0.083  -0.080  -0.077  -0.073
 -0.072  -0.072  -0.063  -0.061  -0.058  -0.056  -0.049  -0.045
 -0.041  -0.036  -0.035  -0.030  -0.022  -0.018  -0.008  -0.008
 -0.004  -0.002   0.002   0.007   0.012   0.016   0.016   0.017
  0.025   0.027   0.032   0.040   0.046   0.054   0.055   0.070
  0.075   0.078   0.081   0.088   0.093   0.112   0.117   0.122
  0.127   0.132   0.134   0.143   0.144   0.153   0.160   0.164
  0.174   0.177   0.182   0.191   0.194   0.209   0.222   0.231
  0.245   0.249   0.255   0.256   0.263   0.267   0.268   0.273
  0.275   0.279   0.282   0.284   0.288   0.294   0.300   0.302
  0.306   0.306   0.315   0.317   0.320   0.325   0.328   0.333
  0.336   0.343   0.352   0.355   0.358   0.361   0.368   0.373
  0.392   0.396   0.397   0.407   0.415   0.417   0.426   0.431
  0.437   0.440   0.445   0.450   0.453   0.457   0.459   0.463
  0.471   0.474   0.479   0.483   0.483   0.488   0.490   0.493
  0.498   0.499   0.503   0.509   0.512   0.513   0.517   0.518
  0.522   0.523   0.527   0.530   0.534   0.535   0.538   0.546
  0.546   0.549   0.555   0.557   0.562   0.564   0.567   0.572
  0.575   0.580   0.581   0.584   0.590   0.595   0.597   0.602
  0.605   0.609   0.614   0.618   0.619   0.624   0.634   0.639
  0.642   0.650   0.651   0.661   0.667   0.676   0.687   0.694
  0.697   0.703   0.714   0.720   0.724   0.727   0.740   0.752
  0.760   0.774   0.778   0.783   0.802   0.808   0.818   0.830
  0.831   0.848   0.853   0.870   0.879   0.886   0.909   0.914
  0.919   0.933   0.942   0.945   0.949   0.958   0.970   0.988
  0.998   1.003   1.007   1.018   1.033   1.044   1.055   1.061
  1.068   1.092   1.098   1.112   1.123   1.137   1.146   1.162
  1.178   1.197   1.214   1.223   1.238   1.256   1.268   1.317
  1.323   1.335   1.370   1.374   1.500   1.569
 
 Beta MOs
 -- Occupied --
******* -30.263 -26.010 -26.006 -26.004 -19.446 -19.332 -14.644
-14.634 -14.629 -14.605 -14.589 -14.556 -10.501 -10.490 -10.476
-10.461 -10.454 -10.450 -10.442 -10.436 -10.431 -10.429 -10.428
-10.405 -10.400 -10.399 -10.396 -10.394 -10.390 -10.389 -10.384
-10.382 -10.362 -10.355 -10.354 -10.343 -10.340  -3.602  -2.337
 -2.330  -2.326  -1.421  -1.256  -1.239  -1.221  -1.111  -1.094
 -1.088  -1.036  -1.007  -0.998  -0.975  -0.965  -0.959  -0.958
 -0.950  -0.935  -0.904  -0.878  -0.850  -0.845  -0.841  -0.828
 -0.826  -0.822  -0.809  -0.809  -0.804  -0.787  -0.785  -0.778
 -0.764  -0.753  -0.753  -0.736  -0.709  -0.692  -0.682  -0.678
 -0.670  -0.662  -0.660  -0.655  -0.652  -0.648  -0.646  -0.643
 -0.641  -0.639  -0.633  -0.630  -0.628  -0.625  -0.623  -0.614
 -0.609  -0.605  -0.591  -0.584  -0.583  -0.580  -0.575  -0.573
 -0.562  -0.555  -0.553  -0.546  -0.532  -0.531  -0.530  -0.524
 -0.517  -0.516  -0.508  -0.506  -0.503  -0.502  -0.495  -0.484
 -0.473  -0.464  -0.462  -0.461  -0.460  -0.452  -0.447  -0.439
 -0.410  -0.402  -0.392  -0.377
 -- Virtual --
 -0.359  -0.341  -0.311  -0.295  -0.270  -0.266  -0.250  -0.239
 -0.230  -0.218  -0.205  -0.199  -0.193  -0.185  -0.175  -0.166
 -0.161  -0.151  -0.145  -0.134  -0.131  -0.128  -0.123  -0.116
 -0.111  -0.109  -0.103  -0.100  -0.096  -0.091  -0.088  -0.084
 -0.083  -0.078  -0.075  -0.072  -0.072  -0.070  -0.062  -0.058
 -0.057  -0.055  -0.048  -0.044  -0.038  -0.034  -0.032  -0.030
 -0.019  -0.017  -0.008  -0.005  -0.003   0.001   0.008   0.010
  0.015   0.017   0.018   0.025   0.026   0.029   0.033   0.042
  0.047   0.056   0.057   0.070   0.076   0.079   0.082   0.090
  0.094   0.113   0.118   0.123   0.129   0.133   0.136   0.145
  0.147   0.155   0.162   0.165   0.175   0.178   0.187   0.192
  0.195   0.211   0.224   0.232   0.247   0.251   0.255   0.258
  0.264   0.268   0.268   0.274   0.276   0.281   0.283   0.285
  0.291   0.295   0.301   0.304   0.307   0.308   0.316   0.319
  0.324   0.326   0.329   0.336   0.338   0.344   0.354   0.356
  0.359   0.363   0.370   0.374   0.395   0.397   0.399   0.411
  0.417   0.420   0.428   0.433   0.438   0.441   0.445   0.450
  0.456   0.459   0.460   0.464   0.472   0.478   0.480   0.484
  0.486   0.490   0.491   0.494   0.499   0.500   0.506   0.510
  0.513   0.516   0.518   0.519   0.523   0.524   0.528   0.531
  0.534   0.536   0.539   0.547   0.548   0.551   0.557   0.560
  0.564   0.567   0.570   0.574   0.578   0.581   0.582   0.587
  0.591   0.597   0.600   0.605   0.607   0.610   0.615   0.620
  0.621   0.630   0.638   0.641   0.648   0.652   0.655   0.661
  0.669   0.678   0.691   0.697   0.699   0.708   0.715   0.722
  0.726   0.733   0.746   0.755   0.763   0.777   0.781   0.788
  0.803   0.812   0.829   0.832   0.841   0.855   0.870   0.875
  0.888   0.899   0.917   0.920   0.934   0.945   0.948   0.950
  0.958   0.964   0.973   0.992   1.004   1.008   1.016   1.024
  1.040   1.057   1.062   1.072   1.075   1.094   1.107   1.115
  1.131   1.146   1.150   1.164   1.198   1.204   1.228   1.246
  1.257   1.278   1.280   1.326   1.336   1.346   1.396   1.405
  1.530   1.579
 --------------------------------------------------------------
 
          Ground-State Mulliken Net Atomic Charges

     Atom                 Charge (a.u.)    Spin (a.u.)
  --------------------------------------------------------
      1 Fe                    1.262822       3.390096
      2 O                    -0.260298       0.053164
      3 O                    -0.341593       0.260233
      4 N                    -0.686069       0.014837
      5 C                     0.326843       0.016459
      6 H                     0.163763      -0.000293
      7 N                    -0.433354       0.003413
      8 H                     0.305953       0.000605
      9 C                     0.101320       0.003512
     10 H                     0.164719       0.000154
     11 C                     0.101702      -0.000979
     12 H                     0.143773       0.000535
     13 N                    -0.693553       0.013041
     14 C                     0.292120       0.021813
     15 H                     0.146665      -0.000713
     16 N                    -0.433769       0.003575
     17 H                     0.311035       0.000475
     18 C                     0.128050       0.001832
     19 H                     0.175651       0.000253
     20 C                     0.031941       0.004059
     21 H                     0.148986       0.000413
     22 N                    -0.728919       0.012736
     23 H                     0.328216       0.000248
     24 C                     0.002717      -0.006070
     25 H                     0.170149       0.000173
     26 C                     0.071955       0.028133
     27 H                     0.161596      -0.001272
     28 N                    -0.266403       0.003357
     29 C                     0.182475       0.018249
     30 H                     0.176581      -0.000928
     31 H                     0.133203       0.000068
     32 H                     0.150905      -0.000421
     33 C                    -0.225415      -0.001063
     34 H                     0.135994       0.000230
     35 H                     0.135152      -0.000098
     36 H                     0.138458       0.000797
     37 C                    -0.128551       0.001660
     38 C                    -0.438841       0.004727
     39 C                    -0.125304       0.000232
     40 H                     0.123849      -0.000118
     41 H                     0.155569       0.000564
     42 H                     0.136776      -0.003291
     43 H                     0.148045      -0.000939
     44 C                    -0.189202      -0.000566
     45 C                     0.115638      -0.046587
     46 H                     0.130413       0.001251
     47 H                     0.123200       0.000007
     48 C                    -0.264098      -0.008405
     49 C                    -0.104496       0.057945
     50 C                    -0.260018      -0.000770
     51 C                    -0.044117       0.085651
     52 H                     0.160575       0.001015
     53 H                     0.123504       0.004290
     54 H                     0.155080       0.000027
     55 H                     0.113520      -0.000112
     56 C                    -0.270457      -0.092807
     57 H                     0.163218       0.005901
     58 C                    -0.088291       0.015378
     59 H                     0.125184      -0.000088
     60 H                     0.136716       0.004141
     61 C                    -0.071621      -0.002160
     62 H                     0.220433       0.005511
     63 H                     0.145135      -0.001630
     64 H                     0.133950       0.001005
     65 C                    -0.091282       0.078192
     66 C                    -0.067492      -0.038401
     67 H                     0.081350      -0.004363
     68 C                    -0.151413       0.103813
     69 H                     0.167140      -0.005966
     70 H                     0.112515      -0.005733
  --------------------------------------------------------
  Sum of atomic charges =     2.000000
  Sum of spin   charges =     4.000000

 -----------------------------------------------------------------
                    Cartesian Multipole Moments
 -----------------------------------------------------------------
    Charge (ESU x 10^10)
                 9.6064
    Dipole Moment (Debye)
         X      -5.1704      Y      -2.7270      Z       0.0818
       Tot       5.8460
    Quadrupole Moments (Debye-Ang)
        XX     -86.0044     XY      16.9310     YY     -51.6422
        XZ     -15.8076     YZ      -0.5223     ZZ    -201.0333
    Octopole Moments (Debye-Ang^2)
       XXX     -36.1008    XXY     -26.0784    XYY     -48.7544
       YYY      87.3604    XXZ      84.4121    XYZ     -31.3354
       YYZ      42.6755    XZZ     -48.2311    YZZ     -13.3268
       ZZZ      -3.6906
    Hexadecapole Moments (Debye-Ang^3)
      XXXX  -12292.6312   XXXY    -356.5587   XXYY   -3235.1080
      XYYY    -132.2653   YYYY   -5263.7558   XXXZ    -472.7780
      XXYZ      36.4681   XYYZ    -199.1842   YYYZ    -148.7480
[...]
           43          44          45          46          47          48
    1   0.0012370   0.0008997  -0.0158705  -0.0023459  -0.0012610  -0.0029273
    2   0.0000249  -0.0029918  -0.0395398  -0.0006620   0.0013205   0.0037814
    3   0.0011267  -0.0019716  -0.0112146   0.0011291  -0.0012034  -0.0046920
           49          50          51          52          53          54
    1  -0.0049516   0.0005759   0.0601341   0.0003084   0.0035133  -0.0008330
    2   0.0275698  -0.0010562   0.0085861  -0.0011153   0.0011388   0.0014320
    3   0.0081186   0.0011530   0.0148418  -0.0002933  -0.0002507  -0.0000132
           55          56          57          58          59          60
    1  -0.0005597  -0.1883593   0.0071000   0.0181962  -0.0005130  -0.0062353
    2   0.0003470   0.0394081  -0.0012901  -0.0184138   0.0001590  -0.0014497
    3  -0.0002764   0.1284004  -0.0082447  -0.0004039  -0.0003686  -0.0031374
           61          62          63          64          65          66
    1  -0.0161100  -0.1067425   0.0030590   0.0012299   0.0123102  -0.0086071
    2   0.0162734   0.1293506   0.0031614   0.0002995  -0.0112682   0.0071460
    3   0.0045361   0.0584492  -0.0006781  -0.0001684  -0.0043298   0.0029065
           67          68          69          70
    1   0.0000673   0.0047177  -0.0001182   0.0004565
    2   0.0006269  -0.0005990   0.0006639  -0.0002563
    3  -0.0005196  -0.0011972  -0.0002601  -0.0004287
 Max gradient component =       2.385E-01
 RMS gradient           =       3.115E-02
 Gradient time:  CPU 4613.35 s  wall 706.33 s
 Geometry Optimization Parameters
   NAtoms,    NIC,     NZ,  NCons,   NDum,   NFix, NCnnct, MaxDiis
       70     567       0       0       0       0       0       0

 Cartesian Hessian Update
 Hessian Updated using BFGS Update


** GEOMETRY OPTIMIZATION IN DELOCALIZED INTERNAL COORDINATES **
   Searching for a Minimum

   Optimization Cycle:   2

                       Coordinates (Angstroms)
     ATOM                X               Y               Z
      1  Fe       -2.3203533772   -0.9759363540    0.0673759305
      2  O        -0.5722527870   -0.3865189261   -0.2073482961
      3  O         0.2372812261    0.3416534502    0.5288098248
      4  N        -2.8209324504    0.8592237214    0.4571681937
      5  C        -2.4405638269    1.9519085360   -0.2419918768
      6  H        -1.8343040165    1.9675603893   -1.1398605188
      7  N        -2.9579074355    3.0481979793    0.3494619275
      8  H        -2.8422468210    4.0028072262    0.0225312832
      9  C        -3.6814258395    2.6730980136    1.4744048912
     10  H        -4.1693717225    3.3923517867    2.1201439498
     11  C        -3.5972432463    1.3046925707    1.5367628225
     12  H        -4.0114941000    0.6314548107    2.2766823767
     13  N        -1.7795953952   -2.8391321596    0.2303982652
     14  C        -0.5646578342   -3.3583919849   -0.0483551136
     15  H         0.2819469873   -2.8203011639   -0.4457425653
     16  N        -0.5694819830   -4.6754744690    0.2449826171
     17  H         0.2160770163   -5.3092411257    0.1273667857
     18  C        -1.8155828477   -5.0390385513    0.7364408159
     19  H        -2.0471936389   -6.0500635707    1.0477760308
     20  C        -2.5687309165   -3.8925055402    0.7242651270
     21  H        -3.5897975701   -3.7551304719    1.0604581400
     22  N        -4.1217979444   -1.5490167509   -0.7874959389
     23  H        -3.9642006054   -2.4997009551   -1.1478223928
     24  C        -5.1704039010   -1.3941478428    0.2007823515
     25  H        -5.2816263876   -2.0874883877    1.0280749574
     26  C        -5.9049710647   -0.3094841421   -0.1750376122
     27  H        -6.7612056333    0.1381910821    0.3167706359
     28  N        -5.4200624453    0.2231249484   -1.3922433327
     29  C        -4.4254277300   -0.5193042333   -1.7737340875
     30  H        -3.8623696833   -0.4336459603   -2.6989574395
     31  H         5.6065537976   -1.3539093883   -1.6875482250
     32  H         6.8520957505   -1.0398634300   -0.4414291691
     33  C         5.8646974545   -0.7228803894   -0.8210985059
     34  H         5.9660192235    0.3133888135   -1.1852613684
     35  H         4.4784659677   -3.1470148251   -1.2145419647
     36  H         5.7138457666   -2.6768213537    0.9593083527
     37  C         3.9627206869   -3.1673132450   -0.2379444349
     38  C         4.8038037354   -0.8285150819    0.2976088158
     39  C         4.6967397284   -2.2924650135    0.7642884298
     40  H         3.9610357006   -4.2203348803    0.0891506462
     41  H         4.4058398159    3.5950121505   -1.6950714686
     42  H         4.4957050392    1.5356705544   -0.6043498435
     43  H         6.1916611315   -0.4333680647    1.9294646644
     44  C         5.2694629740    0.0053577467    1.5092592434
     45  C         3.4493875187   -0.2956290368   -0.2247734112
     46  H         2.0489694696   -3.1600202767   -1.2562001093
     47  H         5.4868533197    1.0516713615    1.2412512278
     48  C         2.5377589846   -2.6573540908   -0.4013475051
     49  C         3.4984489660    1.1661318469   -0.3379729898
     50  C         4.1762698372    4.0010157270   -0.6945272865
     51  C         2.4140554226   -1.1570025281   -0.5816170213
     52  H         4.9668377525    3.6342786906   -0.0160048321
     53  H         0.7628899851   -1.5408810211   -1.8997476220
     54  H         4.2713423729    5.0920507398   -0.7525251869
     55  H         4.1587127207   -2.3176712741    1.7319201085
     56  C         1.0869818363   -0.7784560731   -1.1684176678
     57  H         1.1140855666    0.1968536826   -1.6723545376
     58  C         2.5668975154    2.1348560187   -0.0915400476
     59  H         4.5004568274    0.0129874901    2.3005332598
     60  H         1.9438161459   -2.9552008071    0.4892636597
     61  C         2.8151239157    3.5578864687   -0.2295616598
     62  H         0.2521532372   -0.7326064761   -0.3867016331
     63  H         1.5745726236    1.8610421616    0.2662305373
     64  H         2.7822894530    6.3496378726   -0.2994915959
     65  C         1.7999176017    4.4380322227    0.0665199431
     66  C         1.8412362943    5.8777353353   -0.0004521023
     67  H         0.8443432704    4.0057534801    0.3906985723
     68  C         0.7863130703    6.6784693505    0.2901266373
     69  H         0.8537952424    7.7661846734    0.2310932789
     70  H        -0.1784532507    6.2602973424    0.5949821889
   Point Group: c1    Number of degrees of freedom:   204


   Energy is  -2714.045354188

 Hessian Updated using BFGS Update

193 Hessian modes will be used to form the next step
  Hessian Eigenvalues:
     0.002000    0.002002    0.002593    0.003296    0.003578    0.005279
     0.008193    0.008199    0.008556    0.008726    0.009582    0.010480
     0.010952    0.011009    0.011038    0.012309    0.013150    0.013891
     0.015378    0.015469    0.015505    0.016737    0.016942    0.017454
     0.018441    0.018589    0.019320    0.019333    0.020047    0.020473
     0.020518    0.020780    0.021175    0.021368    0.021543    0.021783
     0.021815    0.022121    0.022150    0.022550    0.023079    0.023129
     0.023961    0.025876    0.027199    0.028323    0.028327    0.029336
     0.030428    0.031631    0.042809    0.044842    0.048002    0.049649
     0.051747    0.051860    0.051903    0.053395    0.053924    0.054166
     0.054935    0.055418    0.056401    0.059572    0.069329    0.070349
     0.072882    0.072944    0.074243    0.078900    0.079623    0.083789
     0.088971    0.097392    0.098474    0.108686    0.121715    0.125681
     0.130702    0.133184    0.134704    0.135859    0.140760    0.159808
     0.159832    0.159837    0.159907    0.159920    0.159975    0.159979
     0.159980    0.159993    0.159995    0.159998    0.159999    0.159999
     0.159999    0.160000    0.160000    0.160011    0.161291    0.177843
     0.178998    0.182753    0.187365    0.189219    0.190609    0.219991
     0.219998    0.220001    0.220001    0.220015    0.227142    0.227674
     0.228105    0.228367    0.229215    0.231541    0.231648    0.249019
     0.249649    0.249702    0.249993    0.249998    0.272034    0.277803
     0.281252    0.283116    0.288120    0.293244    0.304993    0.315346
     0.318883    0.324110    0.328747    0.330667    0.330814    0.331248
     0.331414    0.331567    0.331619    0.332053    0.332238    0.333043
     0.333194    0.333344    0.333935    0.334592    0.336786    0.339638
     0.339914    0.340110    0.340781    0.342156    0.342621    0.343267
     0.346181    0.352131    0.353696    0.354811    0.355320    0.355462
     0.355575    0.356195    0.356496    0.356587    0.361455    0.364765
     0.378420    0.391707    0.410018    0.412051    0.413710    0.421777
     0.428732    0.437327    0.444640    0.444863    0.448959    0.449060
     0.473730    0.473983    0.481245    0.496417    0.502642    0.521714
     0.526808    0.527083    0.537760    0.538511    0.539108    0.646902
     1.516975

 Minimum Search - Taking Simple RFO Step
 Searching for Lamda that Minimizes Along All modes
 Value Taken    Lamda =  -0.21367796
 Calculated Step too Large.  Step scaled by  0.384250
 Step Taken.  Stepsize is  0.300000

                             Maximum     Tolerance    Cnvgd?
         Gradient           0.095532      0.000300      NO
         Displacement       0.087768      0.001200      NO
         Energy change     -0.080129      0.000001      NO


 New Cartesian Coordinates Obtained by Inverse Iteration

 Displacement from previous Coordinates is:  2.743865
 ----------------------------------------------------------------
             Standard Nuclear Orientation (Angstroms)
    I     Atom           X                Y                Z
 ----------------------------------------------------------------
    1      Fe     -2.3161027200    -0.9451142959     0.0734447004
    2      O      -0.5310049815    -0.3995400862    -0.2017163749
    3      O       0.2847580871     0.3373014563     0.5916713275
    4      N      -2.7298544159     0.9228942526     0.4708990803
    5      C      -2.2941199778     1.9945566668    -0.2229308840
    6      H      -1.6852382834     1.9788456800    -1.1186281768
    7      N      -2.7555951392     3.1181801652     0.3683271205
    8      H      -2.5906051621     4.0650071871     0.0436498648
    9      C      -3.5003047322     2.7785327589     1.4902175149
   10      H      -3.9531177068     3.5201861402     2.1360576335
   11      C      -3.4841574213     1.4072082744     1.5481222567
   12      H      -3.9334476453     0.7534058516     2.2848275775
   13      N      -1.8656984976    -2.8484644450     0.2468853312
   14      C      -0.6881969169    -3.4433607618    -0.0190631598
   15      H       0.1877164492    -2.9610355012    -0.4137976794
   16      N      -0.7695715186    -4.7584561467     0.2811068551
   17      H      -0.0221406629    -5.4371713631     0.1711611354
   18      C      -2.0366571029    -5.0433772419     0.7666475931
   19      H      -2.3308148864    -6.0363077807     1.0823191601
   20      C      -2.7173460058    -3.8520180705     0.7417267517
   21      H      -3.7302443557    -3.6516783977     1.0702113670
   22      N      -4.1446229504    -1.4641310561    -0.7987964298
   23      H      -4.0170855914    -2.4196827580    -1.1556162944
   24      C      -5.1897700290    -1.2705691386     0.1819824108
   25      H      -5.3279954214    -1.9574518164     1.0103960690
   26      C      -5.8847259303    -0.1608263241    -0.1989080620
   27      H      -6.7263092687     0.3177282750     0.2886875740
   28      N      -5.3771206087     0.3507782128    -1.4134091807
   29      C      -4.4068434134    -0.4302943216    -1.7863115509
   30      H      -3.8352870472    -0.3675307589    -2.7079714919
   31      H       5.7251452060    -1.3040042334    -1.6951250432
   32      H       6.9491099034    -0.9635351161    -0.4363997010
   33      C       5.9578773540    -0.6713499253    -0.8229787571
   34      H       6.0355908183     0.3682823763    -1.1815261588
   35      H       4.6377116421    -3.1372626522    -1.2356128751
   36      H       5.8473777446    -2.6379025652     0.9456213795
   37      C       4.1183597841    -3.1748402594    -0.2617770740
   38      C       4.8917211110    -0.8126773020     0.2891732797
   39      C       4.8217092142    -2.2824371242     0.7467384664
   40      H       4.1456558154    -4.2277826101     0.0622881245
   41      H       4.3035873179     3.6271756923    -1.6773326864
   42      H       4.4900826593     1.5504667104    -0.5973509389
   43      H       6.2559300148    -0.3917299744     1.9327479240
   44      C       5.3255654207     0.0259049594     1.5111126413
   45      C       3.5237706531    -0.3165118489    -0.2387784676
   46      H       2.2127392993    -3.2242804876    -1.2907696940
   47      H       5.5171645521     1.0794701770     1.2547335417
   48      C       2.6785277458    -2.7082553101    -0.4313351587
   49      C       3.5084836225     1.1354983570    -0.3446586869
   50      C       4.0388987932     4.0105501739    -0.6770330732
   51      C       2.5074719777    -1.2101252259    -0.6105097476
   52      H       4.8407251369     3.6851789454     0.0089441738
   53      H       0.8736337309    -1.5730303352    -1.9403972815
   54      H       4.0731241689     5.1049364747    -0.7262244864
   55      H       4.2794517630    -2.3273978493     1.7112777672
   56      C       1.2033641378    -0.8232615327    -1.1972541635
   57      H       1.2380734135     0.1592751028    -1.6828361601
   58      C       2.5209942298     2.0567362078    -0.1040044646
   59      H       4.5520582578     0.0061915137     2.2977100038
   60      H       2.0941877198    -3.0269956985     0.4575536663
   61      C       2.6996931095     3.4866071009    -0.2318690215
   62      H       0.3346611606    -0.7733788798    -0.3925201451
   63      H       1.5392580426     1.7275651989     0.2391244227
   64      H       2.4976212948     6.2733973377    -0.2819287789
   65      C       1.6275043755     4.3053793019     0.0591176685
   66      C       1.5847192783     5.7422697579     0.0023511962
   67      H       0.6955594515     3.8142544289     0.3688469373
   68      C       0.4763245895     6.4724921520     0.2873941056
   69      H       0.4755781340     7.5624276033     0.2380811125
   70      H      -0.4637022902     5.9918331009     0.5775012436
 ----------------------------------------------------------------
 Molecular Point Group                 C1    NOp =  1
 Largest Abelian Subgroup              C1    NOp =  1
 Nuclear Repulsion Energy =  4229.4890513949 hartrees
 There are      136 alpha and      132 beta electrons
 Applying Cartesian multipole field
    Component          Value
    ---------          -----
     (2,0,0)        1.00000E-12
     (0,2,0)        2.00000E-12
     (0,0,2)       -3.00000E-11
 Nucleus-field energy     =     0.0000000071 hartrees
 Requested basis set is VDZ
 There are 246 shells and 390 basis functions
 A cutoff of  1.0D-12 yielded  18964 shell pairs
 There are     48908 function pairs (     49467 Cartesian)
 Smallest overlap matrix eigenvalue = 9.28E-04
 Guess MOs from SCF MO coefficient file

 -----------------------------------------------------------------------
  General SCF calculation program by
  Eric Jon Sundstrom, Paul Horn, Yuezhi Mao, Dmitri Zuev, Alec White,
  David Stuck, Shaama M.S., Shane Yost, Joonho Lee, David Small,
  Daniel Levine, Susi Lehtola, Hugh Burton, Evgeny Epifanovsky
 -----------------------------------------------------------------------
 Exchange:  B97M-V      Correlation:  B97M-V
 Using SG-2 standard quadrature grid
 Nonlocal Correlation:  rVV10 with C = 0.0100 and b = 6.00 and scale = 1.00000
 Grid used for NLC:  SG-1 standard quadrature
 using 12 threads for integral computing
 -------------------------------------------------------
 OpenMP Integral computing Module                
 Release: version 1.0, May 2013, Q-Chem Inc. Pittsburgh 
 -------------------------------------------------------
 -------------------------------------------------------
 OpenMP BLAS3 based DFT computing Module                
 Release: version 1.0, May 2013, Q-Chem Inc. Pittsburgh 
 -------------------------------------------------------
 -------------------------------------------------------
 OpenMP BLAS3 based DFT computing Module                
 Release: version 1.0, May 2013, Q-Chem Inc. Pittsburgh 
 -------------------------------------------------------
 -------------------------------------------------------
 OpenMP BLAS3 based DFT computing Module                
 Release: version 1.0, May 2013, Q-Chem Inc. Pittsburgh 
 -------------------------------------------------------
 Nonlocal correlation = 0.989284739050
 A unrestricted SCF calculation will be
 performed using DIIS, GDM
 SCF converges when RMS gradient is below 1.0e-08
 ---------------------------------------
  Cycle       Energy         DIIS error
 ---------------------------------------
 Nonlocal correlation = 9.892100822405e-01
    1   -2714.0865252643      4.56e-04  
    2   -2714.1076819405      2.69e-04  Done DIIS. Switching to GDM
 ---------------------------------------
  Cycle       Energy        RMS Gradient
 ---------------------------------------
 Nonlocal correlation = 9.888484315931e-01
    1   -2714.1076819405      2.07e-01   Normal BFGS step
 Nonlocal correlation = 9.891694022986e-01
    2   -2713.7739534634      5.94e-01  Line search: overstep
 Nonlocal correlation = 9.892518446640e-01
    3   -2714.1125904710      3.97e-02   Normal BFGS step
 Nonlocal correlation = 9.891913961467e-01
    4   -2714.1096232075      5.51e-02  Line search: overstep
 Nonlocal correlation = 9.892069883739e-01
    5   -2714.1130599879      2.00e-02   Normal BFGS step
 Nonlocal correlation = 9.891988834532e-01
    6   -2714.1130267959      1.31e-02  Line search: overstep
 Nonlocal correlation = 9.892477280281e-01
    7   -2714.1132212127      7.29e-03   Normal BFGS step
 Nonlocal correlation = 9.892193991106e-01
    8   -2714.1131711768      1.31e-02  Line search: overstep
 Nonlocal correlation = 9.892066228241e-01
    9   -2714.1132754641      2.06e-03   Normal BFGS step
 Nonlocal correlation = 9.892132704070e-01
   10   -2714.1132736799      6.80e-03  Line search: overstep
 Nonlocal correlation = 9.892188068566e-01
   11   -2714.1132860490      4.33e-03   Normal BFGS step
 Nonlocal correlation = 9.892178027918e-01
   12   -2714.1132933077      2.91e-03   Normal BFGS step
 Nonlocal correlation = 9.892202867993e-01
   13   -2714.1132992318      9.50e-04   Normal BFGS step
 Nonlocal correlation = 9.892220534578e-01
   14   -2714.1133024231      7.83e-04   Normal BFGS step
 Nonlocal correlation = 9.892207076676e-01
   15   -2714.1133046991      3.57e-04   Normal BFGS step
 Nonlocal correlation = 9.892196811472e-01
   16   -2714.1133053601      4.94e-04   Normal BFGS step
 Nonlocal correlation = 9.892218492438e-01
   17   -2714.1133060936      3.05e-04   Normal BFGS step
 Nonlocal correlation = 9.892217539265e-01
   18   -2714.1133065082      3.73e-04   Normal BFGS step
 Nonlocal correlation = 9.892214164589e-01
   19   -2714.1133068216      3.50e-04   Normal BFGS step
 Nonlocal correlation = 9.892207136583e-01
   20   -2714.1133069838      1.79e-04   Normal BFGS step
 Nonlocal correlation = 9.892212079493e-01
   21   -2714.1133070935      1.15e-04   Normal BFGS step
 Nonlocal correlation = 9.892218342826e-01
   22   -2714.1133071677      6.51e-05   Normal BFGS step
 Nonlocal correlation = 9.892212316400e-01
   23   -2714.1133072034      3.79e-05   Normal BFGS step
 Nonlocal correlation = 9.892211027993e-01
   24   -2714.1133072145      3.37e-05   Normal BFGS step
 Nonlocal correlation = 9.892214409918e-01
   25   -2714.1133072270      2.05e-05   Normal BFGS step
