
Running Job 1 of 1 sys_1_car_1_epox_opt_vdz_mgga.in
qchem sys_1_car_1_epox_opt_vdz_mgga.in_29295.0 /scr/c295_lal/157282/qchem29295/ 1
/usr/software/qchem_511/exe/qcprog.exe_s sys_1_car_1_epox_opt_vdz_mgga.in_29295.0 /scr/c295_lal/157282/qchem29295/
Check license passed

                  Welcome to Q-Chem
     A Quantum Leap Into The Future Of Chemistry


 Q-Chem 5.1, Q-Chem, Inc., Pleasanton, CA (2018)

 Yihan Shao,  Zhengting Gan,  E. Epifanovsky,  A. T. B. Gilbert,  M. Wormit,  
 J. Kussmann,  A. W. Lange,  A. Behn,  Jia Deng,  Xintian Feng,  D. Ghosh,  
 M. Goldey,  P. R. Horn,  L. D. Jacobson,  I. Kaliman,  T. Kus,  A. Landau,  
 Jie Liu,  E. I. Proynov,  R. M. Richard,  R. P. Steele,  E. J. Sundstrom,  
 H. L. Woodcock III,  P. M. Zimmerman,  D. Zuev,  B. Albrecht,  E. Alguire,  
 S. A. Baeppler,  D. Barton,  Z. Benda,  Y. A. Bernard,  E. J. Berquist,  
 K. B. Bravaya,  H. Burton,  D. Casanova,  Chun-Min Chang,  Yunqing Chen,  
 A. Chien,  K. D. Closser,  M. P. Coons,  S. Coriani,  S. Dasgupta,  
 A. L. Dempwolff,  M. Diedenhofen,  Hainam Do,  R. G. Edgar,  Po-Tung Fang,  
 S. Faraji,  S. Fatehi,  Qingguo Feng,  K. D. Fenk,  J. Fosso-Tande,  
 Qinghui Ge,  A. Ghysels,  G. Gidofalvi,  J. Gomes,  J. Gonthier,  A. Gunina,  
 D. Hait,  M. W. D. Hanson-Heine,  P. H. P. Harbach,  A. W. Hauser,  
 J. E. Herr,  E. G. Hohenstein,  Z. C. Holden,  Kerwin Hui,  B. C. Huynh,  
 T.-C. Jagau,  Hyunjun Ji,  B. Kaduk,  K. Khistyaev,  Jaehoon Kim,  
 P. Klunzinger,  K. Koh,  D. Kosenkov,  L. Koulias,  T. Kowalczyk,  
 C. M. Krauter,  A. Kunitsa,  Ka Un Lao,  A. Laurent,  K. V. Lawler,  
 Joonho Lee,  D. Lefrancois,  S. Lehtola,  D. S. Levine,  Yi-Pei Li,  
 You-Sheng Lin,  Fenglai Liu,  E. Livshits,  A. Luenser,  P. Manohar,  
 E. Mansoor,  S. F. Manzer,  Shan-Ping Mao,  Yuezhi Mao,  N. Mardirossian,  
 A. V. Marenich,  T. Markovich,  L. A. Martinez-Martinez,  S. A. Maurer,  
 N. J. Mayhall,  S. C. McKenzie,  J.-M. Mewes,  A. F. Morrison,  
 J. W. Mullinax,  K. Nanda,  T. S. Nguyen-Beck,  R. Olivares-Amaya,  
 J. A. Parkhill,  T. M. Perrine,  F. Plasser,  P. Pokhilko,  S. Prager,  
 A. Prociuk,  E. Ramos,  D. R. Rehn,  F. Rob,  M. Schneider,  N. Sergueev,  
 S. M. Sharada,  S. Sharma,  D. W. Small,  T. Stauch,  T. Stein,  
 Yu-Chuan Su,  A. J. W. Thom,  A. Tkatchenko,  T. Tsuchimochi,  N. M. Tubman,  
 L. Vogt,  M. L. Vidal,  O. Vydrov,  M. A. Watson,  J. Wenzel,  
 M. de Wergifosse,  T. A. Wesolowski,  A. White,  J. Witte,  A. Yamada,  
 Jun Yang,  K. Yao,  S. Yeganeh,  S. R. Yost,  Zhi-Qiang You,  A. Zech,  
 Igor Ying Zhang,  Xing Zhang,  Yan Zhao,  Ying Zhu,  B. R. Brooks,  
 G. K. L. Chan,  C. J. Cramer,  M. S. Gordon,  W. J. Hehre,  A. Klamt,  
 M. W. Schmidt,  C. D. Sherrill,  D. G. Truhlar,  A. Aspuru-Guzik,  R. Baer,  
 A. T. Bell,  N. A. Besley,  Jeng-Da Chai,  A. E. DePrince, III,  
 R. A. DiStasio Jr.,  A. Dreuw,  B. D. Dunietz,  T. R. Furlani,  
 Chao-Ping Hsu,  Yousung Jung,  Jing Kong,  D. S. Lambrecht,  WanZhen Liang,  
 C. Ochsenfeld,  V. A. Rassolov,  L. V. Slipchenko,  J. E. Subotnik,  
 T. Van Voorhis,  J. M. Herbert,  A. I. Krylov,  P. M. W. Gill,  M. Head-Gordon

 Contributors to earlier versions of Q-Chem not listed above: 
 R. D. Adamson,  B. Austin,  J. Baker,  G. J. O. Beran,  K. Brandhorst,  
 S. T. Brown,  E. F. C. Byrd,  A. K. Chakraborty,  C.-L. Cheng,  
 Siu Hung Chien,  D. M. Chipman,  D. L. Crittenden,  H. Dachsel,  
 R. J. Doerksen,  A. D. Dutoi,  L. Fusti-Molnar,  W. A. Goddard III,  
 A. Golubeva-Zadorozhnaya,  S. R. Gwaltney,  G. Hawkins,  A. Heyden,  
 S. Hirata,  G. Kedziora,  F. J. Keil,  C. Kelley,  Jihan Kim,  R. A. King,  
 R. Z. Khaliullin,  P. P. Korambath,  W. Kurlancheek,  A. M. Lee,  M. S. Lee,  
 S. V. Levchenko,  Ching Yeh Lin,  D. Liotard,  R. C. Lochan,  I. Lotan,  
 P. E. Maslen,  N. Nair,  D. P. O'Neill,  D. Neuhauser,  E. Neuscamman,  
 C. M. Oana,  R. Olson,  B. Peters,  R. Peverati,  P. A. Pieniazek,  
 Y. M. Rhee,  J. Ritchie,  M. A. Rohrdanz,  E. Rosta,  N. J. Russ,  
 H. F. Schaefer III,  N. E. Schultz,  N. Shenvi,  A. C. Simmonett,  A. Sodt,  
 D. Stuck,  K. S. Thanthiriwatte,  V. Vanovschi,  Tao Wang,  A. Warshel,  
 C. F. Williams,  Q. Wu,  X. Xu,  W. Zhang

 Please cite Q-Chem as follows:
 Y. Shao et al., Mol. Phys. 113, 184-215 (2015)
 DOI: 10.1080/00268976.2014.952696

 Q-Chem 5.1.1 for Intel X86 EM64T Linux

 Parts of Q-Chem use Armadillo 8.300.2 (Tropical Shenanigans).
 http://arma.sourceforge.net/

 Q-Chem begins on Tue Nov 27 18:07:30 2018  

Host: cub-0-20.local
0

     Scratch files written to /scr/c295_lal/157282/qchem29295//
 Aug318 |scratch|qcdevops|jenkins|workspace|build_RNUM -1
Processing $rem in /usr/software/qchem_511/config/preferences.
 MEM_TOTAL  2000 
Input Ideriv = 2
Curr. Ideriv = -1
Max.  Ideriv = 2
Input Ideriv = 1
Curr. Ideriv = 2
Max.  Ideriv = 1

Checking the input file for inconsistencies... 	...done.

--------------------------------------------------------------
User input:
--------------------------------------------------------------
$molecule
2 3
Fe         0.29287       -0.25576        0.08878
O          0.53560       -1.96218        0.74805
N         -1.56882       -0.66804       -0.22976
C         -2.39863       -1.31300        0.62402
H         -2.16065       -1.66058        1.62244
N         -3.60396       -1.44647        0.03653
H         -4.41965       -1.88098        0.45976
C         -3.56631       -0.89363       -1.23782
H         -4.41991       -0.90693       -1.90388
C         -2.29468       -0.40399       -1.40097
H         -1.85948        0.08398       -2.26416
N          2.19745        0.01228       -0.11522
C          3.17211       -0.79462        0.36699
H          3.03054       -1.68281        0.97106
N          4.36794       -0.31130       -0.02465
H          5.27110       -0.72035        0.19968
C          4.18427        0.83553       -0.78739
H          5.01100        1.38743       -1.21760
C          2.82861        1.03676       -0.84119
H          2.28211        1.81101       -1.36714
N          0.00774        1.74392        0.50832
H          0.92744        2.09498        0.80934
C         -0.58212        2.38033       -0.65487
H          0.00031        2.59636       -1.54472
C         -1.88230        2.63845       -0.34091
H         -2.65550        3.08863       -0.95343
N         -2.16064        2.24930        0.99166
C         -1.06316        1.78085        1.50072
H         -0.90369        1.45331        2.52439
H         -1.33811       -4.65395        1.32837
H         -2.06831        0.13155        2.84637
H         -3.83821       -1.76685        3.01587
O          1.19969       -1.71685        2.60387
H         -0.34831       -0.30515        3.01007
H         -3.40891       -4.25215        2.51877
C         -1.05921       -5.19045        2.25117
C         -1.33701       -0.42045        3.46607
H          5.68359       -3.24015        1.61527
C         -1.77071       -1.85785        3.59227
H          3.43529       -2.51485        2.42617
H         -1.57441       -6.16705        2.24907
H          0.02169       -5.39675        2.21507
C         -3.24011       -1.99135        3.92447
C         -0.96021       -2.94095        3.43697
C          0.51549       -2.87745        3.25797
C         -3.02791       -4.42475        3.54407
H          0.97939       -3.81175        2.93347
C          5.96699       -3.39535        2.66117
C         -1.48431       -4.39045        3.50337
H         -1.34591        0.07655        4.45527
C          3.73839       -2.69645        3.46307
H         -3.50781       -1.19615        4.64587
C          1.44789       -1.99825        4.03457
C         -3.61661       -3.36525        4.46517
H         -3.34791       -5.44185        3.83267
H         -4.71201       -3.46875        4.53387
H          6.98479       -3.74355        2.84917
C          5.09419       -3.16355        3.66787
C          2.80649       -2.44515        4.42167
H          0.97289       -1.27365        4.70957
C         -0.91261       -5.08745        4.75717
H         -3.22491       -3.48595        5.49197
H          0.19099       -5.06525        4.76327
H         -1.22371       -6.14685        4.78507
H          5.42539       -3.33555        4.69747
H         -1.26131       -4.59885        5.68277
C          3.00389       -2.59775        5.90237
H          2.80059       -1.64495        6.42577
H          4.02159       -2.91235        6.16737
H          2.30019       -3.33985        6.32557
$end

$rem
BASIS = VDZ
METHOD  = B97M-rV
JOBTYPE = OPT
MAX_SCF_CYCLES = 500
SCF_ALGORITHM = DIIS_GDM
$end
--------------------------------------------------------------
 ----------------------------------------------------------------
             Standard Nuclear Orientation (Angstroms)
    I     Atom           X                Y                Z
 ----------------------------------------------------------------
    1      Fe     -1.5866997906     1.1085965663    -0.4436011214
    2      O      -0.0340401650     0.4306809000    -1.1751080855
    3      N      -2.4927368606    -0.5375848991    -0.8980409932
    4      C      -2.0102053899    -1.7891024936    -0.7126618777
    5      H      -1.0678651479    -2.0598692890    -0.2511761857
    6      N      -2.9103019587    -2.6733781705    -1.1855908832
    7      H      -2.8103796300    -3.6846487882    -1.1606907820
    8      C      -4.0028461291    -1.9929921230    -1.7094606882
    9      H      -4.8420799202    -2.5026289701    -2.1659721356
   10      C      -3.7419035715    -0.6583134858    -1.5252053600
   11      H      -4.3391370302     0.1975133905    -1.8141401114
   12      N      -0.8919108312     2.9135124411    -0.4644194998
   13      C       0.3893345548     3.2715412938    -0.7170097038
   14      H       1.2192965196     2.6003484256    -0.9027174760
   15      N       0.4751664417     4.6166253736    -0.6977429882
   16      H       1.3229628913     5.1554041407    -0.8536354421
   17      C      -0.7745965564     5.1634664236    -0.4335776236
   18      H      -0.9435590110     6.2320708719    -0.3816837993
   19      C      -1.6262358315     4.0984427251    -0.2864822276
   20      H      -2.6942334283     4.1094365701    -0.1020669801
   21      N      -2.6767493066     1.4965745043     1.2644088913
   22      H      -2.2296633270     2.3180293670     1.6945603640
   23      C      -4.0744583728     1.6339464288     0.8990299038
   24      H      -4.4490112861     2.5195723244     0.3959359003
   25      C      -4.7065378581     0.5132961503     1.3465601554
   26      H      -5.7497567720     0.2339501494     1.2499106229
   27      N      -3.8005042038    -0.3296540980     2.0344493754
   28      C      -2.6427082660     0.2556304210     2.0337900612
   29      H      -1.7373565195    -0.0832214926     2.5299059721
   30      H       0.9720275879    -2.4153384526    -2.5826547882
   31      H      -1.3465818315    -1.7028301072     1.8732299172
   32      H      -1.0147047803    -4.0125480794     0.7242045338
   33      O       1.2967361043     0.4628515566     0.2990933184
   34      H      -0.0987734326    -0.4543748704     1.6277949946
   35      H       0.3935279595    -4.4388410847    -1.3837038642
   36      C       2.0025199240    -2.6985306974    -2.3086748661
   37      C      -0.2594322841    -1.5012875904     1.9051400328
   38      H       3.9141762823     4.0501611602    -1.6201119290
   39      C       0.4571890919    -2.4729164017     1.0037343824
   40      H       2.8178216199     2.1291906132    -0.4597885251
   41      H       2.3220926527    -3.5176926087    -2.9765296737
   42      H       2.6607108812    -1.8402407240    -2.5144191135
   43      C      -0.0158158785    -3.8965307082     1.1958386626
   44      C       1.4294018307    -2.1455296415     0.1083270730
   45      C       2.0414477823    -0.7958072814    -0.0236314192
   46      C       1.3209420850    -4.5284183932    -0.7853136941
   47      H       2.6423360216    -0.6500592185    -0.9242483056
   48      C       4.7935114690     3.8767049874    -0.9916280426
   49      C       2.0701351819    -3.1789312181    -0.8412422895
   50      H       0.0432932011    -1.6530505064     2.9591467443
   51      C       3.7176330522     1.9654420951     0.1431506005
   52      H      -0.1892359810    -4.0632423694     2.2759113361
   53      C       2.4692580380     0.0793207377     1.1150517217
   54      C       0.9458976219    -4.9356633202     0.6327929204
   55      H       1.9432794275    -5.2950276084    -1.2804792354
   56      H       0.4861232886    -5.9375510110     0.6455097375
   57      H       5.6415686520     4.5496448032    -1.1346493647
   58      C       4.8213451248     2.8761272513    -0.0822186454
   59      C       3.6738910221     0.9381697476     1.0338252993
   60      H       2.2030778009    -0.2765433861     2.1194440587
   61      C       3.5503281184    -3.3861928050    -0.4529951580
   62      H       1.8485913127    -4.9964687997     1.2682159403
   63      H       4.1089075179    -2.4342578862    -0.4694868182
   64      H       4.0430355285    -4.0728175031    -1.1641040892
   65      H       5.7253929659     2.7426570262     0.5213016939
   66      H       3.6442197128    -3.8106510004     0.5609459739
   67      C       4.7735706063     0.5440206441     1.9772643839
   68      H       4.4175094787     0.5609722897     3.0241833899
   69      H       5.6485501474     1.2036833083     1.9127088115
   70      H       5.1157285333    -0.4905235969     1.7832269998
 ----------------------------------------------------------------
 Molecular Point Group                 C1    NOp =  1
 Largest Abelian Subgroup              C1    NOp =  1
 Nuclear Repulsion Energy =  4480.7161722293 hartrees
 There are      135 alpha and      133 beta electrons
 Requested basis set is VDZ
 There are 246 shells and 390 basis functions

 Total QAlloc Memory Limit   2000 MB
 Mega-Array Size       188 MB
 MEM_STATIC part       192 MB
 A cutoff of  1.0D-12 yielded  21491 shell pairs
 There are     55695 function pairs (     56339 Cartesian)
 
 -------------------------------------------------------
 OpenMP Integral Computing Module                       
 Release: version 1.0, May 2013, Q-Chem Inc. Pittsburgh 
 -------------------------------------------------------
 Integral Job Info:
 Integral job number is                      11
 Integral operator is                         1
 short-range coefficients                     0
 long-range coefficients              100000000
 Omega coefficients                           0
 if combine SR and LR in K                    0
 Integral screening is                        0
 Integral computing path is                   2
 max size of driver memory is            800000
 size of driver memory is                593474
 size of scratch memory is             29634545
 max col of scratch BK array               1296
 max len of scratch array in speh3          155
 max len of scratch index in speh4           18
 max int batch size is                      520
 min int batch size is                       52
 fixed nKL is                                45
 max L of basis functions is                  2
 order of int derivative is                   0
 number of shells is                        246
 number of basis is                         392
 number of cartesian basis is               392
 number of contracted shell pairs         21491
 number of primitive shell pairs          56094
 maxK2 (contraction) of shell pair           36
 max number of K2 of shell pair               1
 max number of CS2 of shell pair           5453
 max number of PS2 of shell pair          12130
 mem total for path MDJ                  707438
 -------------------------------------------------------
 Smallest overlap matrix eigenvalue = 7.27E-04

 Scale SEOQF with 1.000000e-02/1.000000e-02/1.000000e-01

 Standard Electronic Orientation quadrupole field applied
 Nucleus-field energy     =    -0.0000000200 hartrees
 Guess from superposition of atomic densities
 Warning:  Energy on first SCF cycle will be non-variational
 SAD guess density has 270.000001 electrons

 -----------------------------------------------------------------------
  General SCF calculation program by
  Eric Jon Sundstrom, Paul Horn, Yuezhi Mao, Dmitri Zuev, Alec White,
  David Stuck, Shaama M.S., Shane Yost, Joonho Lee, David Small,
  Daniel Levine, Susi Lehtola, Hugh Burton, Evgeny Epifanovsky
 -----------------------------------------------------------------------
 Exchange:  B97M-V      Correlation:  B97M-V
 Using SG-2 standard quadrature grid
 Nonlocal Correlation:  rVV10 with C = 0.0100 and b = 6.00 and scale = 1.00000
 Grid used for NLC:  SG-1 standard quadrature
 using 12 threads for integral computing
 -------------------------------------------------------
 OpenMP Integral computing Module                
 Release: version 1.0, May 2013, Q-Chem Inc. Pittsburgh 
 -------------------------------------------------------
 -------------------------------------------------------
 OpenMP BLAS3 based DFT computing Module                
 Release: version 1.0, May 2013, Q-Chem Inc. Pittsburgh 
 -------------------------------------------------------
 -------------------------------------------------------
 OpenMP BLAS3 based DFT computing Module                
 Release: version 1.0, May 2013, Q-Chem Inc. Pittsburgh 
 -------------------------------------------------------
 -------------------------------------------------------
 OpenMP BLAS3 based DFT computing Module                
 Release: version 1.0, May 2013, Q-Chem Inc. Pittsburgh 
 -------------------------------------------------------
 Nonlocal correlation = 0.940073157378
 A unrestricted SCF calculation will be
 performed using DIIS, GDM
 SCF converges when RMS gradient is below 1.0e-08
 ---------------------------------------
  Cycle       Energy         DIIS error
 ---------------------------------------
 Nonlocal correlation = 9.899736994789e-01
    1   -2721.3225485634      2.53e-02  
    2   -2712.8149062318      4.32e-03  Done DIIS. Switching to GDM
 ---------------------------------------
  Cycle       Energy        RMS Gradient
 ---------------------------------------
 Nonlocal correlation = 9.865289496670e-01
    1   -2712.8149062318      7.35e-01   Descent step
 Nonlocal correlation = 9.840462149880e-01
    2   -2713.5895616037      5.29e-01   Descent step
 Nonlocal correlation = 9.804619525347e-01
    3   -2713.8907559139      2.65e-01   Descent step
 Nonlocal correlation = 9.803229031530e-01
    4   -2714.0064380945      4.80e-01   Descent step
 Nonlocal correlation = 9.803378296242e-01
    5   -2713.5776326976      9.82e-01  Line search: overstep
 Nonlocal correlation = 9.779196633979e-01
    6   -2714.0967644206      7.68e-02   Descent step
 Nonlocal correlation = 9.776870733370e-01
    7   -2714.1067075425      6.17e-01   Descent step
 Nonlocal correlation = 9.778390385881e-01
    8   -2713.7175618358      6.77e-01  Line search: overstep
 Nonlocal correlation = 9.780539845118e-01
    9   -2714.1690246608      1.28e-01   Descent step
 Nonlocal correlation = 9.778413562188e-01
   10   -2713.9102528942      8.34e-01  Line search: overstep
 Nonlocal correlation = 9.791690827548e-01
   11   -2714.1787789580      8.75e-02   Normal BFGS step
 Nonlocal correlation = 9.773958466823e-01
   12   -2714.1854049271      7.62e-02   Normal BFGS step
 Nonlocal correlation = 9.767513442613e-01
   13   -2714.1989398575      1.56e-01   Normal BFGS step
 Nonlocal correlation = 9.770741334949e-01
   14   -2714.1978071789      1.51e-01  Line search: overstep
 Nonlocal correlation = 9.785612389234e-01
   15   -2714.2175527525      3.98e-02   Normal BFGS step
 Nonlocal correlation = 9.785807683279e-01
   16   -2714.2223571387      6.79e-02   Normal BFGS step
 Nonlocal correlation = 9.779275465862e-01
   17   -2714.2268679604      6.18e-02   Normal BFGS step
 Nonlocal correlation = 9.779135237705e-01
   18   -2714.2294142971      3.06e-02   Normal BFGS step
 Nonlocal correlation = 9.782300887746e-01
   19   -2714.2305190867      1.58e-02   Normal BFGS step
 Nonlocal correlation = 9.782340282156e-01
   20   -2714.2311743843      1.07e-02   Normal BFGS step
 Nonlocal correlation = 9.780598251309e-01
   21   -2714.2315697470      5.97e-03   Normal BFGS step
 Nonlocal correlation = 9.779753465798e-01
   22   -2714.2319312800      8.09e-03   Normal BFGS step
 Nonlocal correlation = 9.780655141154e-01
   23   -2714.2322655941      7.42e-03   Normal BFGS step
 Nonlocal correlation = 9.781056834007e-01
   24   -2714.2328213202      7.05e-03   Normal BFGS step
 Nonlocal correlation = 9.780708527049e-01
   25   -2714.2333063640      6.25e-03   Normal BFGS step
 Nonlocal correlation = 9.780749586937e-01
   26   -2714.2336728763      1.04e-02   Normal BFGS step
 Nonlocal correlation = 9.780394083587e-01
   27   -2714.2338051619      4.69e-03   Normal BFGS step
 Nonlocal correlation = 9.780083427029e-01
   28   -2714.2339853400      3.90e-03   Normal BFGS step
 Nonlocal correlation = 9.780766188902e-01
   29   -2714.2340632035      3.36e-03   Normal BFGS step
 Nonlocal correlation = 9.780359626626e-01
   30   -2714.2340089656      8.83e-03  Line search: overstep
 Nonlocal correlation = 9.779867845331e-01
   31   -2714.2341139166      4.91e-03   Normal BFGS step
 Nonlocal correlation = 9.780316511433e-01
   32   -2714.2341573853      3.52e-03   Normal BFGS step
 Nonlocal correlation = 9.780091661718e-01
   33   -2714.2341589580      5.26e-03   Normal BFGS step
 Nonlocal correlation = 9.780011840657e-01
   34   -2714.2341915890      8.24e-04   Normal BFGS step
 Nonlocal correlation = 9.780052522717e-01
   35   -2714.2341908935      2.18e-03  Line search: overstep
 Nonlocal correlation = 9.780106924275e-01
   36   -2714.2341987420      1.18e-03   Normal BFGS step
 Nonlocal correlation = 9.780078049701e-01
   37   -2714.2341982508      1.36e-03  Line search: overstep
 Nonlocal correlation = 9.780058275020e-01
   38   -2714.2342005592      3.99e-04   Normal BFGS step
 Nonlocal correlation = 9.780083102706e-01
   39   -2714.2342009541      4.53e-04   Normal BFGS step
 Nonlocal correlation = 9.780065317244e-01
   40   -2714.2342017554      2.75e-04   Normal BFGS step
 Nonlocal correlation = 9.780075993465e-01
   41   -2714.2342017601      2.14e-04   Normal BFGS step
 Nonlocal correlation = 9.780032136167e-01
   42   -2714.2342019962      4.04e-04   Normal BFGS step
 Nonlocal correlation = 9.780055236523e-01
   43   -2714.2342019496      3.56e-04  Line search: overstep
 Nonlocal correlation = 9.780064486061e-01
   44   -2714.2342021908      1.67e-04   Normal BFGS step
 Nonlocal correlation = 9.780070041205e-01
   45   -2714.2342022626      1.12e-04   Normal BFGS step
 Nonlocal correlation = 9.780056694322e-01
   46   -2714.2342023207      1.79e-04   Normal BFGS step
 Nonlocal correlation = 9.780059007512e-01
   47   -2714.2342023528      4.70e-05   Normal BFGS step
 Nonlocal correlation = 9.780064990919e-01
   48   -2714.2342023777      2.73e-05   Normal BFGS step
 Nonlocal correlation = 9.780063060331e-01
   49   -2714.2342023833      2.50e-05   Normal BFGS step
 Nonlocal correlation = 9.780061443980e-01
   50   -2714.2342023886      1.85e-05   Normal BFGS step
 Nonlocal correlation = 9.780062498660e-01
   51   -2714.2342023892      1.27e-05   Normal BFGS step
 Nonlocal correlation = 9.780062574323e-01
   52   -2714.2342023899      4.30e-06   Normal BFGS step
 Nonlocal correlation = 9.780062629876e-01
   53   -2714.2342023900      5.32e-06   Normal BFGS step
 Nonlocal correlation = 9.780062069690e-01
   54   -2714.2342023902      4.07e-06   Normal BFGS step
 Nonlocal correlation = 9.780062495909e-01
   55   -2714.2342023900      9.98e-06   Normal BFGS step
 Nonlocal correlation = 9.780062659858e-01
   56   -2714.2342023902      2.96e-06   Normal BFGS step
 Nonlocal correlation = 9.780062495395e-01
   57   -2714.2342023902      6.51e-06   Normal BFGS step
 Nonlocal correlation = 9.780062535598e-01
   58   -2714.2342023902      3.06e-06   Normal BFGS step
 Nonlocal correlation = 9.780062490720e-01
   59   -2714.2342023902      4.07e-06   Normal BFGS step
 Nonlocal correlation = 9.780062587111e-01
   60   -2714.2342023902      7.19e-07   Normal BFGS step
 Nonlocal correlation = 9.780062526887e-01
   61   -2714.2342023902      1.33e-06   Normal BFGS step
 Nonlocal correlation = 9.780062528418e-01
   62   -2714.2342023902      7.07e-07   Normal BFGS step
 Nonlocal correlation = 9.780062520645e-01
   63   -2714.2342023902      1.81e-06   Normal BFGS step
 Nonlocal correlation = 9.780062552056e-01
   64   -2714.2342023903      1.12e-07   Normal BFGS step
 Nonlocal correlation = 9.780062539013e-01
   65   -2714.2342023903      1.66e-07   Normal BFGS step
 Nonlocal correlation = 9.780062526202e-01
   66   -2714.2342023903      8.57e-08   Normal BFGS step
 Nonlocal correlation = 9.780062534446e-01
   67   -2714.2342023903      2.09e-07   Normal BFGS step
 Nonlocal correlation = 9.780062540436e-01
   68   -2714.2342023903      5.35e-08   Normal BFGS step
  /scratch/qcdevops/jenkins/workspace/build_qchem_linux_distrib/tags/qc511/qchem/libgscf/libgscf/opt/gdm.C::WARNING energy changes are now smaller than effective accuracy.
  /scratch/qcdevops/jenkins/workspace/build_qchem_linux_distrib/tags/qc511/qchem/libgscf/libgscf/opt/gdm.C::        calculation will continue, but THRESH should be increased
  /scratch/qcdevops/jenkins/workspace/build_qchem_linux_distrib/tags/qc511/qchem/libgscf/libgscf/opt/gdm.C::        or SCF_CONVERGENCE decreased. 
  /scratch/qcdevops/jenkins/workspace/build_qchem_linux_distrib/tags/qc511/qchem/libgscf/libgscf/opt/gdm.C::        effective_thresh = 6.86e-09
 Nonlocal correlation = 9.780062538489e-01
   69   -2714.2342023902      4.88e-08   Normal BFGS step
 Nonlocal correlation = 9.780062535954e-01
   70   -2714.2342023902      4.21e-08   Normal BFGS step
 Nonlocal correlation = 9.780062536249e-01
   71   -2714.2342023903      3.05e-08   Normal BFGS step
 Nonlocal correlation = 9.780062539398e-01
   72   -2714.2342023903      2.20e-08   Normal BFGS step
  /scratch/qcdevops/jenkins/workspace/build_qchem_linux_distrib/tags/qc511/qchem/libgscf/libgscf/opt/gdm.C::WARNING energy changes are now smaller than effective accuracy.
  /scratch/qcdevops/jenkins/workspace/build_qchem_linux_distrib/tags/qc511/qchem/libgscf/libgscf/opt/gdm.C::        calculation will continue, but THRESH should be increased
  /scratch/qcdevops/jenkins/workspace/build_qchem_linux_distrib/tags/qc511/qchem/libgscf/libgscf/opt/gdm.C::        or SCF_CONVERGENCE decreased. 
  /scratch/qcdevops/jenkins/workspace/build_qchem_linux_distrib/tags/qc511/qchem/libgscf/libgscf/opt/gdm.C::        effective_thresh = 9.19e-09
 Nonlocal correlation = 9.780062538214e-01
   73   -2714.2342023902      2.19e-08   Normal BFGS step
 Nonlocal correlation = 9.780062537695e-01
   74   -2714.2342023903      4.27e-08   Normal BFGS step
 Nonlocal correlation = 9.780062537384e-01
   75   -2714.2342023903      3.49e-08   Normal BFGS step
  /scratch/qcdevops/jenkins/workspace/build_qchem_linux_distrib/tags/qc511/qchem/libgscf/libgscf/opt/gdm.C::WARNING energy changes are now smaller than effective accuracy.
  /scratch/qcdevops/jenkins/workspace/build_qchem_linux_distrib/tags/qc511/qchem/libgscf/libgscf/opt/gdm.C::        calculation will continue, but THRESH should be increased
  /scratch/qcdevops/jenkins/workspace/build_qchem_linux_distrib/tags/qc511/qchem/libgscf/libgscf/opt/gdm.C::        or SCF_CONVERGENCE decreased. 
  /scratch/qcdevops/jenkins/workspace/build_qchem_linux_distrib/tags/qc511/qchem/libgscf/libgscf/opt/gdm.C::        effective_thresh = 9.19e-09
 Nonlocal correlation = 9.780062537169e-01
   76   -2714.2342023902      2.08e-08   Normal BFGS step
 Nonlocal correlation = 9.780062538464e-01
   77   -2714.2342023903      5.11e-08   Normal BFGS step
 Nonlocal correlation = 9.780062536988e-01
   78   -2714.2342023903      1.37e-08   Normal BFGS step
 Nonlocal correlation = 9.780062537392e-01
   79   -2714.2342023903      2.18e-08   Normal BFGS step
  /scratch/qcdevops/jenkins/workspace/build_qchem_linux_distrib/tags/qc511/qchem/libgscf/libgscf/opt/gdm.C::WARNING energy changes are now smaller than effective accuracy.
  /scratch/qcdevops/jenkins/workspace/build_qchem_linux_distrib/tags/qc511/qchem/libgscf/libgscf/opt/gdm.C::        calculation will continue, but THRESH should be increased
  /scratch/qcdevops/jenkins/workspace/build_qchem_linux_distrib/tags/qc511/qchem/libgscf/libgscf/opt/gdm.C::        or SCF_CONVERGENCE decreased. 
  /scratch/qcdevops/jenkins/workspace/build_qchem_linux_distrib/tags/qc511/qchem/libgscf/libgscf/opt/gdm.C::        effective_thresh = 9.19e-09
 Nonlocal correlation = 9.780062538203e-01
   80   -2714.2342023903      4.56e-09  Convergence criterion met
 ---------------------------------------
 SCF time:   CPU 231891.90s  wall 19425.00s 
<S^2> =          3.159400411
 SCF   energy in the final basis set =    -2714.2342023903
 Total energy in the final basis set =    -2714.2342023903
 
 --------------------------------------------------------------
 
                    Orbital Energies (a.u.)
 --------------------------------------------------------------
 
 Alpha MOs
 -- Occupied --
******* -30.409 -26.150 -26.148 -26.128 -19.397 -19.376 -14.657
-14.653 -14.639 -14.622 -14.612 -14.576 -10.513 -10.497 -10.493
-10.470 -10.469 -10.466 -10.464 -10.463 -10.454 -10.451 -10.451
-10.422 -10.408 -10.405 -10.403 -10.397 -10.392 -10.388 -10.385
-10.377 -10.372 -10.354 -10.353 -10.345 -10.344  -3.823  -2.573
 -2.567  -2.529  -1.267  -1.266  -1.253  -1.242  -1.123  -1.109
 -1.109  -1.054  -1.026  -1.007  -0.985  -0.974  -0.969  -0.960
 -0.948  -0.935  -0.890  -0.863  -0.857  -0.856  -0.843  -0.836
 -0.833  -0.828  -0.828  -0.818  -0.815  -0.806  -0.789  -0.777
 -0.774  -0.759  -0.751  -0.731  -0.708  -0.704  -0.692  -0.688
 -0.681  -0.674  -0.671  -0.664  -0.661  -0.660  -0.658  -0.654
 -0.649  -0.644  -0.641  -0.636  -0.632  -0.629  -0.623  -0.611
 -0.605  -0.598  -0.595  -0.588  -0.587  -0.586  -0.581  -0.579
 -0.571  -0.569  -0.567  -0.563  -0.559  -0.556  -0.551  -0.548
 -0.542  -0.533  -0.529  -0.521  -0.516  -0.514  -0.510  -0.509
 -0.503  -0.500  -0.494  -0.489  -0.480  -0.476  -0.472  -0.471
 -0.470  -0.467  -0.458  -0.453  -0.444  -0.419  -0.403
 -- Virtual --
 -0.391  -0.357  -0.284  -0.264  -0.259  -0.252  -0.232  -0.229
 -0.216  -0.209  -0.202  -0.183  -0.178  -0.162  -0.158  -0.152
 -0.141  -0.139  -0.137  -0.131  -0.123  -0.119  -0.114  -0.110
 -0.106  -0.104  -0.103  -0.095  -0.093  -0.090  -0.089  -0.081
 -0.076  -0.075  -0.072  -0.071  -0.067  -0.061  -0.059  -0.056
 -0.052  -0.050  -0.046  -0.041  -0.036  -0.031  -0.026  -0.020
 -0.017  -0.011  -0.007  -0.004   0.001   0.002   0.011   0.012
  0.015   0.020   0.023   0.031   0.035   0.045   0.049   0.059
  0.063   0.068   0.071   0.077   0.080   0.093   0.099   0.106
  0.109   0.118   0.122   0.135   0.139   0.143   0.147   0.153
  0.155   0.159   0.165   0.183   0.190   0.204   0.211   0.216
  0.223   0.232   0.236   0.244   0.248   0.252   0.255   0.264
  0.264   0.268   0.272   0.272   0.280   0.285   0.288   0.292
  0.296   0.298   0.304   0.313   0.317   0.321   0.321   0.325
  0.336   0.338   0.342   0.345   0.350   0.354   0.359   0.370
  0.374   0.388   0.391   0.397   0.401   0.406   0.411   0.421
  0.425   0.426   0.427   0.436   0.439   0.448   0.452   0.456
  0.458   0.461   0.463   0.478   0.480   0.484   0.486   0.488
  0.491   0.496   0.498   0.499   0.503   0.508   0.512   0.515
  0.518   0.519   0.521   0.523   0.526   0.528   0.531   0.534
  0.537   0.538   0.543   0.546   0.554   0.554   0.559   0.562
  0.563   0.564   0.568   0.578   0.581   0.586   0.590   0.594
  0.597   0.605   0.606   0.609   0.616   0.620   0.624   0.628
  0.636   0.644   0.646   0.655   0.657   0.668   0.672   0.680
  0.684   0.690   0.706   0.717   0.726   0.729   0.737   0.747
  0.753   0.760   0.764   0.774   0.786   0.798   0.809   0.814
  0.832   0.835   0.836   0.852   0.871   0.878   0.889   0.893
  0.908   0.916   0.927   0.931   0.941   0.946   0.951   0.963
  0.976   0.983   1.014   1.019   1.021   1.034   1.038   1.062
  1.065   1.074   1.089   1.096   1.107   1.121   1.135   1.150
  1.159   1.175   1.201   1.212   1.230   1.254   1.268   1.285
  1.300   1.352   1.363   1.377   1.483   1.486   1.551
 
 Beta MOs
 -- Occupied --
******* -30.342 -26.091 -26.090 -26.076 -19.400 -19.396 -14.657
-14.653 -14.639 -14.622 -14.612 -14.576 -10.512 -10.497 -10.493
-10.470 -10.469 -10.466 -10.466 -10.463 -10.454 -10.451 -10.451
-10.422 -10.409 -10.406 -10.404 -10.396 -10.392 -10.390 -10.385
-10.377 -10.373 -10.354 -10.353 -10.345 -10.344  -3.667  -2.409
 -2.402  -2.374  -1.271  -1.266  -1.253  -1.241  -1.123  -1.112
 -1.109  -1.105  -1.027  -1.011  -0.984  -0.973  -0.968  -0.960
 -0.951  -0.935  -0.891  -0.866  -0.859  -0.856  -0.842  -0.836
 -0.832  -0.828  -0.827  -0.818  -0.817  -0.805  -0.788  -0.777
 -0.773  -0.762  -0.752  -0.732  -0.709  -0.701  -0.694  -0.690
 -0.679  -0.671  -0.669  -0.663  -0.660  -0.658  -0.657  -0.652
 -0.646  -0.645  -0.642  -0.636  -0.630  -0.623  -0.617  -0.615
 -0.605  -0.599  -0.591  -0.589  -0.586  -0.580  -0.579  -0.571
 -0.569  -0.561  -0.559  -0.555  -0.552  -0.544  -0.541  -0.537
 -0.531  -0.528  -0.523  -0.517  -0.514  -0.504  -0.502  -0.499
 -0.494  -0.484  -0.479  -0.474  -0.472  -0.471  -0.469  -0.468
 -0.454  -0.451  -0.435  -0.423  -0.407
 -- Virtual --
 -0.383  -0.346  -0.334  -0.319  -0.274  -0.268  -0.259  -0.246
 -0.232  -0.230  -0.214  -0.206  -0.200  -0.183  -0.177  -0.163
 -0.161  -0.151  -0.141  -0.140  -0.138  -0.130  -0.124  -0.120
 -0.115  -0.111  -0.107  -0.104  -0.103  -0.095  -0.093  -0.090
 -0.089  -0.080  -0.076  -0.075  -0.072  -0.072  -0.066  -0.060
 -0.059  -0.057  -0.051  -0.048  -0.046  -0.041  -0.035  -0.029
 -0.025  -0.020  -0.017  -0.012  -0.006  -0.001   0.002   0.008
  0.011   0.013   0.014   0.020   0.024   0.031   0.035   0.044
  0.049   0.058   0.062   0.069   0.070   0.077   0.081   0.092
  0.099   0.105   0.110   0.118   0.122   0.135   0.139   0.144
  0.146   0.153   0.155   0.160   0.167   0.184   0.191   0.204
  0.211   0.215   0.223   0.230   0.237   0.245   0.247   0.252
  0.255   0.264   0.266   0.268   0.272   0.273   0.280   0.285
  0.289   0.293   0.296   0.297   0.304   0.313   0.316   0.319
  0.321   0.325   0.335   0.337   0.341   0.346   0.349   0.354
  0.359   0.370   0.375   0.388   0.393   0.399   0.401   0.407
  0.410   0.420   0.424   0.427   0.428   0.436   0.440   0.448
  0.452   0.457   0.459   0.462   0.463   0.478   0.480   0.484
  0.486   0.488   0.492   0.496   0.498   0.499   0.503   0.508
  0.512   0.515   0.518   0.519   0.521   0.522   0.527   0.528
  0.531   0.535   0.537   0.539   0.543   0.547   0.554   0.554
  0.559   0.561   0.563   0.566   0.569   0.580   0.581   0.587
  0.591   0.595   0.597   0.605   0.607   0.609   0.617   0.621
  0.626   0.630   0.637   0.644   0.651   0.653   0.661   0.667
  0.674   0.681   0.685   0.692   0.706   0.715   0.727   0.732
  0.739   0.749   0.755   0.761   0.766   0.777   0.787   0.799
  0.812   0.819   0.828   0.835   0.844   0.857   0.879   0.887
  0.889   0.893   0.912   0.922   0.931   0.933   0.942   0.949
  0.958   0.967   0.980   0.985   1.014   1.019   1.028   1.032
  1.043   1.060   1.068   1.080   1.093   1.095   1.113   1.126
  1.135   1.157   1.160   1.182   1.201   1.221   1.237   1.256
  1.285   1.291   1.306   1.362   1.367   1.392   1.475   1.498
  1.549
 --------------------------------------------------------------
 
          Ground-State Mulliken Net Atomic Charges

     Atom                 Charge (a.u.)    Spin (a.u.)
  --------------------------------------------------------
      1 Fe                    1.314097       3.045656
      2 O                    -0.377385      -0.713312
      3 N                    -0.698539      -0.011310
      4 C                     0.347950       0.021202
      5 H                     0.169678       0.002724
      6 N                    -0.433641       0.006453
      7 H                     0.319139      -0.000062
      8 C                     0.109013       0.000644
      9 H                     0.172116      -0.000136
     10 C                     0.100764      -0.001200
     11 H                     0.148177       0.000196
     12 N                    -0.698092      -0.006996
     13 C                     0.313529       0.028662
     14 H                     0.234987       0.002594
     15 N                    -0.430632       0.002854
     16 H                     0.316755      -0.000158
     17 C                     0.126186       0.004354
     18 H                     0.180060      -0.000284
     19 C                     0.035967       0.000271
     20 H                     0.151746       0.000192
     21 N                    -0.747014       0.012073
     22 H                     0.334704       0.002161
     23 C                    -0.000445      -0.019437
     24 H                     0.177404       0.000661
     25 C                     0.084002       0.036570
     26 H                     0.170357      -0.001517
     27 N                    -0.276437      -0.008014
     28 C                     0.175609       0.021561
     29 H                     0.213485      -0.000674
     30 H                     0.112053       0.000233
     31 H                     0.172544      -0.001157
     32 H                     0.094406      -0.002391
     33 O                    -0.489284      -0.057052
     34 H                     0.122510      -0.000675
     35 H                     0.078674       0.000088
     36 C                    -0.207725       0.000135
     37 C                    -0.400916       0.004263
     38 H                     0.102743       0.009610
     39 C                    -0.236676      -0.043025
     40 H                     0.076211       0.007827
     41 H                     0.146207      -0.000363
     42 H                     0.129221       0.000024
     43 C                    -0.182293       0.003846
     44 C                     0.170156      -0.006545
     45 C                     0.070440      -0.005645
     46 C                    -0.128617      -0.000922
     47 H                     0.136555       0.000140
     48 C                    -0.178254      -0.174755
     49 C                    -0.403346       0.000950
     50 H                     0.175241      -0.001408
     51 C                    -0.123998      -0.108117
     52 H                     0.145662      -0.001613
     53 C                     0.089792      -0.072621
     54 C                    -0.140227      -0.000282
     55 H                     0.133827      -0.000116
     56 H                     0.135763      -0.000288
     57 H                     0.167673       0.009891
     58 C                    -0.044528       0.043452
     59 C                    -0.038667      -0.022729
     60 H                     0.133015       0.001059
     61 C                    -0.223999      -0.000978
     62 H                     0.131175       0.000048
     63 H                     0.112337      -0.000129
     64 H                     0.147916       0.000198
     65 H                     0.132579      -0.000745
     66 H                     0.133274       0.000065
     67 C                    -0.273802      -0.000282
     68 H                     0.162597      -0.002208
     69 H                     0.158011      -0.000568
     70 H                     0.168209      -0.002947
  --------------------------------------------------------
  Sum of atomic charges =     2.000000
  Sum of spin   charges =     2.000000

 -----------------------------------------------------------------
                    Cartesian Multipole Moments
 -----------------------------------------------------------------
    Charge (ESU x 10^10)
                 9.6064
    Dipole Moment (Debye)
         X      -3.5325      Y       8.2549      Z      -0.2768
       Tot       8.9833
    Quadrupole Moments (Debye-Ang)
        XX     -97.5550     XY      11.8748     YY     -83.9439
        XZ      13.3127     YZ       2.1614     ZZ    -193.5365
    Octopole Moments (Debye-Ang^2)
       XXX     -71.6683    XXY     106.6872    XYY      -3.3557
       YYY     276.6101    XXZ     -39.2112    XYZ     -58.2281
       YYZ     -86.1900    XZZ      -6.5383    YZZ       1.9550
       ZZZ       3.1525
    Hexadecapole Moments (Debye-Ang^3)
      XXXX   -7277.5697   XXXY     474.9304   XXYY   -2261.5899
      XYYY     257.6701   YYYY   -6153.2970   XXXZ     380.8918
      XXYZ     144.2947   XYYZ     -52.4088   YYYZ    -186.0160
      XXZZ   -1788.7237   XYZZ      16.0964   YYZZ   -1746.3561
      XZZZ     111.2719   YZZZ      21.5429   ZZZZ   -1944.3065
 -----------------------------------------------------------------
 Calculating analytic gradient of the SCF energy
