
Running Job 1 of 1 sys_1_car_1_epox_opt_vdz_mgga.in
qchem sys_1_car_1_epox_opt_vdz_mgga.in_29295.0 /scr/c295_lal/157282/qchem29295/ 1
/usr/software/qchem_511/exe/qcprog.exe_s sys_1_car_1_epox_opt_vdz_mgga.in_29295.0 /scr/c295_lal/157282/qchem29295/
Check license passed

                  Welcome to Q-Chem
     A Quantum Leap Into The Future Of Chemistry


 Q-Chem 5.1, Q-Chem, Inc., Pleasanton, CA (2018)

 Yihan Shao,  Zhengting Gan,  E. Epifanovsky,  A. T. B. Gilbert,  M. Wormit,  
 J. Kussmann,  A. W. Lange,  A. Behn,  Jia Deng,  Xintian Feng,  D. Ghosh,  
 M. Goldey,  P. R. Horn,  L. D. Jacobson,  I. Kaliman,  T. Kus,  A. Landau,  
 Jie Liu,  E. I. Proynov,  R. M. Richard,  R. P. Steele,  E. J. Sundstrom,  
 H. L. Woodcock III,  P. M. Zimmerman,  D. Zuev,  B. Albrecht,  E. Alguire,  
 S. A. Baeppler,  D. Barton,  Z. Benda,  Y. A. Bernard,  E. J. Berquist,  
 K. B. Bravaya,  H. Burton,  D. Casanova,  Chun-Min Chang,  Yunqing Chen,  
 A. Chien,  K. D. Closser,  M. P. Coons,  S. Coriani,  S. Dasgupta,  
 A. L. Dempwolff,  M. Diedenhofen,  Hainam Do,  R. G. Edgar,  Po-Tung Fang,  
 S. Faraji,  S. Fatehi,  Qingguo Feng,  K. D. Fenk,  J. Fosso-Tande,  
 Qinghui Ge,  A. Ghysels,  G. Gidofalvi,  J. Gomes,  J. Gonthier,  A. Gunina,  
 D. Hait,  M. W. D. Hanson-Heine,  P. H. P. Harbach,  A. W. Hauser,  
 J. E. Herr,  E. G. Hohenstein,  Z. C. Holden,  Kerwin Hui,  B. C. Huynh,  
 T.-C. Jagau,  Hyunjun Ji,  B. Kaduk,  K. Khistyaev,  Jaehoon Kim,  
 P. Klunzinger,  K. Koh,  D. Kosenkov,  L. Koulias,  T. Kowalczyk,  
 C. M. Krauter,  A. Kunitsa,  Ka Un Lao,  A. Laurent,  K. V. Lawler,  
 Joonho Lee,  D. Lefrancois,  S. Lehtola,  D. S. Levine,  Yi-Pei Li,  
 You-Sheng Lin,  Fenglai Liu,  E. Livshits,  A. Luenser,  P. Manohar,  
 E. Mansoor,  S. F. Manzer,  Shan-Ping Mao,  Yuezhi Mao,  N. Mardirossian,  
 A. V. Marenich,  T. Markovich,  L. A. Martinez-Martinez,  S. A. Maurer,  
 N. J. Mayhall,  S. C. McKenzie,  J.-M. Mewes,  A. F. Morrison,  
 J. W. Mullinax,  K. Nanda,  T. S. Nguyen-Beck,  R. Olivares-Amaya,  
 J. A. Parkhill,  T. M. Perrine,  F. Plasser,  P. Pokhilko,  S. Prager,  
 A. Prociuk,  E. Ramos,  D. R. Rehn,  F. Rob,  M. Schneider,  N. Sergueev,  
 S. M. Sharada,  S. Sharma,  D. W. Small,  T. Stauch,  T. Stein,  
 Yu-Chuan Su,  A. J. W. Thom,  A. Tkatchenko,  T. Tsuchimochi,  N. M. Tubman,  
 L. Vogt,  M. L. Vidal,  O. Vydrov,  M. A. Watson,  J. Wenzel,  
 M. de Wergifosse,  T. A. Wesolowski,  A. White,  J. Witte,  A. Yamada,  
 Jun Yang,  K. Yao,  S. Yeganeh,  S. R. Yost,  Zhi-Qiang You,  A. Zech,  
 Igor Ying Zhang,  Xing Zhang,  Yan Zhao,  Ying Zhu,  B. R. Brooks,  
 G. K. L. Chan,  C. J. Cramer,  M. S. Gordon,  W. J. Hehre,  A. Klamt,  
 M. W. Schmidt,  C. D. Sherrill,  D. G. Truhlar,  A. Aspuru-Guzik,  R. Baer,  
 A. T. Bell,  N. A. Besley,  Jeng-Da Chai,  A. E. DePrince, III,  
 R. A. DiStasio Jr.,  A. Dreuw,  B. D. Dunietz,  T. R. Furlani,  
 Chao-Ping Hsu,  Yousung Jung,  Jing Kong,  D. S. Lambrecht,  WanZhen Liang,  
 C. Ochsenfeld,  V. A. Rassolov,  L. V. Slipchenko,  J. E. Subotnik,  
 T. Van Voorhis,  J. M. Herbert,  A. I. Krylov,  P. M. W. Gill,  M. Head-Gordon

 Contributors to earlier versions of Q-Chem not listed above: 
 R. D. Adamson,  B. Austin,  J. Baker,  G. J. O. Beran,  K. Brandhorst,  
 S. T. Brown,  E. F. C. Byrd,  A. K. Chakraborty,  C.-L. Cheng,  
 Siu Hung Chien,  D. M. Chipman,  D. L. Crittenden,  H. Dachsel,  
 R. J. Doerksen,  A. D. Dutoi,  L. Fusti-Molnar,  W. A. Goddard III,  
 A. Golubeva-Zadorozhnaya,  S. R. Gwaltney,  G. Hawkins,  A. Heyden,  
 S. Hirata,  G. Kedziora,  F. J. Keil,  C. Kelley,  Jihan Kim,  R. A. King,  
 R. Z. Khaliullin,  P. P. Korambath,  W. Kurlancheek,  A. M. Lee,  M. S. Lee,  
 S. V. Levchenko,  Ching Yeh Lin,  D. Liotard,  R. C. Lochan,  I. Lotan,  
 P. E. Maslen,  N. Nair,  D. P. O'Neill,  D. Neuhauser,  E. Neuscamman,  
 C. M. Oana,  R. Olson,  B. Peters,  R. Peverati,  P. A. Pieniazek,  
 Y. M. Rhee,  J. Ritchie,  M. A. Rohrdanz,  E. Rosta,  N. J. Russ,  
 H. F. Schaefer III,  N. E. Schultz,  N. Shenvi,  A. C. Simmonett,  A. Sodt,  
 D. Stuck,  K. S. Thanthiriwatte,  V. Vanovschi,  Tao Wang,  A. Warshel,  
 C. F. Williams,  Q. Wu,  X. Xu,  W. Zhang

 Please cite Q-Chem as follows:
 Y. Shao et al., Mol. Phys. 113, 184-215 (2015)
 DOI: 10.1080/00268976.2014.952696

 Q-Chem 5.1.1 for Intel X86 EM64T Linux

 Parts of Q-Chem use Armadillo 8.300.2 (Tropical Shenanigans).
 http://arma.sourceforge.net/

 Q-Chem begins on Tue Nov 27 18:07:30 2018  

Host: cub-0-20.local
0

     Scratch files written to /scr/c295_lal/157282/qchem29295//
 Aug318 |scratch|qcdevops|jenkins|workspace|build_RNUM -1
Processing $rem in /usr/software/qchem_511/config/preferences.
 MEM_TOTAL  2000 
Input Ideriv = 2
Curr. Ideriv = -1
Max.  Ideriv = 2
Input Ideriv = 1
Curr. Ideriv = 2
Max.  Ideriv = 1

Checking the input file for inconsistencies... 	...done.

--------------------------------------------------------------
User input:
--------------------------------------------------------------
$molecule
2 3
Fe         0.29287       -0.25576        0.08878
O          0.53560       -1.96218        0.74805
N         -1.56882       -0.66804       -0.22976
C         -2.39863       -1.31300        0.62402
H         -2.16065       -1.66058        1.62244
N         -3.60396       -1.44647        0.03653
H         -4.41965       -1.88098        0.45976
C         -3.56631       -0.89363       -1.23782
H         -4.41991       -0.90693       -1.90388
C         -2.29468       -0.40399       -1.40097
H         -1.85948        0.08398       -2.26416
N          2.19745        0.01228       -0.11522
C          3.17211       -0.79462        0.36699
H          3.03054       -1.68281        0.97106
N          4.36794       -0.31130       -0.02465
H          5.27110       -0.72035        0.19968
C          4.18427        0.83553       -0.78739
H          5.01100        1.38743       -1.21760
C          2.82861        1.03676       -0.84119
H          2.28211        1.81101       -1.36714
N          0.00774        1.74392        0.50832
H          0.92744        2.09498        0.80934
C         -0.58212        2.38033       -0.65487
H          0.00031        2.59636       -1.54472
C         -1.88230        2.63845       -0.34091
H         -2.65550        3.08863       -0.95343
N         -2.16064        2.24930        0.99166
C         -1.06316        1.78085        1.50072
H         -0.90369        1.45331        2.52439
H         -1.33811       -4.65395        1.32837
H         -2.06831        0.13155        2.84637
H         -3.83821       -1.76685        3.01587
O          1.19969       -1.71685        2.60387
H         -0.34831       -0.30515        3.01007
H         -3.40891       -4.25215        2.51877
C         -1.05921       -5.19045        2.25117
C         -1.33701       -0.42045        3.46607
H          5.68359       -3.24015        1.61527
C         -1.77071       -1.85785        3.59227
H          3.43529       -2.51485        2.42617
H         -1.57441       -6.16705        2.24907
H          0.02169       -5.39675        2.21507
C         -3.24011       -1.99135        3.92447
C         -0.96021       -2.94095        3.43697
C          0.51549       -2.87745        3.25797
C         -3.02791       -4.42475        3.54407
H          0.97939       -3.81175        2.93347
C          5.96699       -3.39535        2.66117
C         -1.48431       -4.39045        3.50337
H         -1.34591        0.07655        4.45527
C          3.73839       -2.69645        3.46307
H         -3.50781       -1.19615        4.64587
C          1.44789       -1.99825        4.03457
C         -3.61661       -3.36525        4.46517
H         -3.34791       -5.44185        3.83267
H         -4.71201       -3.46875        4.53387
H          6.98479       -3.74355        2.84917
C          5.09419       -3.16355        3.66787
C          2.80649       -2.44515        4.42167
H          0.97289       -1.27365        4.70957
C         -0.91261       -5.08745        4.75717
H         -3.22491       -3.48595        5.49197
H          0.19099       -5.06525        4.76327
H         -1.22371       -6.14685        4.78507
H          5.42539       -3.33555        4.69747
H         -1.26131       -4.59885        5.68277
C          3.00389       -2.59775        5.90237
H          2.80059       -1.64495        6.42577
H          4.02159       -2.91235        6.16737
H          2.30019       -3.33985        6.32557
$end

$rem
BASIS = VDZ
METHOD  = B97M-rV
JOBTYPE = OPT
MAX_SCF_CYCLES = 500
SCF_ALGORITHM = DIIS_GDM
$end
--------------------------------------------------------------
 ----------------------------------------------------------------
             Standard Nuclear Orientation (Angstroms)
    I     Atom           X                Y                Z
 ----------------------------------------------------------------
    1      Fe     -1.5866997906     1.1085965663    -0.4436011214
    2      O      -0.0340401650     0.4306809000    -1.1751080855
    3      N      -2.4927368606    -0.5375848991    -0.8980409932
    4      C      -2.0102053899    -1.7891024936    -0.7126618777
    5      H      -1.0678651479    -2.0598692890    -0.2511761857
    6      N      -2.9103019587    -2.6733781705    -1.1855908832
    7      H      -2.8103796300    -3.6846487882    -1.1606907820
    8      C      -4.0028461291    -1.9929921230    -1.7094606882
    9      H      -4.8420799202    -2.5026289701    -2.1659721356
   10      C      -3.7419035715    -0.6583134858    -1.5252053600
   11      H      -4.3391370302     0.1975133905    -1.8141401114
   12      N      -0.8919108312     2.9135124411    -0.4644194998
   13      C       0.3893345548     3.2715412938    -0.7170097038
   14      H       1.2192965196     2.6003484256    -0.9027174760
   15      N       0.4751664417     4.6166253736    -0.6977429882
   16      H       1.3229628913     5.1554041407    -0.8536354421
   17      C      -0.7745965564     5.1634664236    -0.4335776236
   18      H      -0.9435590110     6.2320708719    -0.3816837993
   19      C      -1.6262358315     4.0984427251    -0.2864822276
   20      H      -2.6942334283     4.1094365701    -0.1020669801
   21      N      -2.6767493066     1.4965745043     1.2644088913
   22      H      -2.2296633270     2.3180293670     1.6945603640
   23      C      -4.0744583728     1.6339464288     0.8990299038
   24      H      -4.4490112861     2.5195723244     0.3959359003
   25      C      -4.7065378581     0.5132961503     1.3465601554
   26      H      -5.7497567720     0.2339501494     1.2499106229
   27      N      -3.8005042038    -0.3296540980     2.0344493754
   28      C      -2.6427082660     0.2556304210     2.0337900612
   29      H      -1.7373565195    -0.0832214926     2.5299059721
   30      H       0.9720275879    -2.4153384526    -2.5826547882
   31      H      -1.3465818315    -1.7028301072     1.8732299172
   32      H      -1.0147047803    -4.0125480794     0.7242045338
   33      O       1.2967361043     0.4628515566     0.2990933184
   34      H      -0.0987734326    -0.4543748704     1.6277949946
   35      H       0.3935279595    -4.4388410847    -1.3837038642
   36      C       2.0025199240    -2.6985306974    -2.3086748661
   37      C      -0.2594322841    -1.5012875904     1.9051400328
   38      H       3.9141762823     4.0501611602    -1.6201119290
   39      C       0.4571890919    -2.4729164017     1.0037343824
   40      H       2.8178216199     2.1291906132    -0.4597885251
   41      H       2.3220926527    -3.5176926087    -2.9765296737
   42      H       2.6607108812    -1.8402407240    -2.5144191135
   43      C      -0.0158158785    -3.8965307082     1.1958386626
   44      C       1.4294018307    -2.1455296415     0.1083270730
   45      C       2.0414477823    -0.7958072814    -0.0236314192
   46      C       1.3209420850    -4.5284183932    -0.7853136941
   47      H       2.6423360216    -0.6500592185    -0.9242483056
   48      C       4.7935114690     3.8767049874    -0.9916280426
   49      C       2.0701351819    -3.1789312181    -0.8412422895
   50      H       0.0432932011    -1.6530505064     2.9591467443
   51      C       3.7176330522     1.9654420951     0.1431506005
   52      H      -0.1892359810    -4.0632423694     2.2759113361
   53      C       2.4692580380     0.0793207377     1.1150517217
   54      C       0.9458976219    -4.9356633202     0.6327929204
   55      H       1.9432794275    -5.2950276084    -1.2804792354
   56      H       0.4861232886    -5.9375510110     0.6455097375
   57      H       5.6415686520     4.5496448032    -1.1346493647
   58      C       4.8213451248     2.8761272513    -0.0822186454
   59      C       3.6738910221     0.9381697476     1.0338252993
   60      H       2.2030778009    -0.2765433861     2.1194440587
   61      C       3.5503281184    -3.3861928050    -0.4529951580
   62      H       1.8485913127    -4.9964687997     1.2682159403
   63      H       4.1089075179    -2.4342578862    -0.4694868182
   64      H       4.0430355285    -4.0728175031    -1.1641040892
   65      H       5.7253929659     2.7426570262     0.5213016939
   66      H       3.6442197128    -3.8106510004     0.5609459739
   67      C       4.7735706063     0.5440206441     1.9772643839
   68      H       4.4175094787     0.5609722897     3.0241833899
   69      H       5.6485501474     1.2036833083     1.9127088115
   70      H       5.1157285333    -0.4905235969     1.7832269998
 ----------------------------------------------------------------
 Molecular Point Group                 C1    NOp =  1
 Largest Abelian Subgroup              C1    NOp =  1
 Nuclear Repulsion Energy =  4480.7161722293 hartrees
 There are      135 alpha and      133 beta electrons
 Requested basis set is VDZ
 There are 246 shells and 390 basis functions

 Total QAlloc Memory Limit   2000 MB
 Mega-Array Size       188 MB
 MEM_STATIC part       192 MB
 A cutoff of  1.0D-12 yielded  21491 shell pairs
 There are     55695 function pairs (     56339 Cartesian)
 
 -------------------------------------------------------
 OpenMP Integral Computing Module                       
 Release: version 1.0, May 2013, Q-Chem Inc. Pittsburgh 
 -------------------------------------------------------
 Integral Job Info:
 Integral job number is                      11
 Integral operator is                         1
 short-range coefficients                     0
 long-range coefficients              100000000
 Omega coefficients                           0
 if combine SR and LR in K                    0
 Integral screening is                        0
 Integral computing path is                   2
 max size of driver memory is            800000
 size of driver memory is                593474
 size of scratch memory is             29634545
 max col of scratch BK array               1296
 max len of scratch array in speh3          155
 max len of scratch index in speh4           18
 max int batch size is                      520
 min int batch size is                       52
 fixed nKL is                                45
 max L of basis functions is                  2
 order of int derivative is                   0
 number of shells is                        246
 number of basis is                         392
 number of cartesian basis is               392
 number of contracted shell pairs         21491
 number of primitive shell pairs          56094
 maxK2 (contraction) of shell pair           36
 max number of K2 of shell pair               1
 max number of CS2 of shell pair           5453
 max number of PS2 of shell pair          12130
 mem total for path MDJ                  707438
 -------------------------------------------------------
 Smallest overlap matrix eigenvalue = 7.27E-04

 Scale SEOQF with 1.000000e-02/1.000000e-02/1.000000e-01

 Standard Electronic Orientation quadrupole field applied
 Nucleus-field energy     =    -0.0000000200 hartrees
 Guess from superposition of atomic densities
 Warning:  Energy on first SCF cycle will be non-variational
 SAD guess density has 270.000001 electrons

 -----------------------------------------------------------------------
  General SCF calculation program by
  Eric Jon Sundstrom, Paul Horn, Yuezhi Mao, Dmitri Zuev, Alec White,
  David Stuck, Shaama M.S., Shane Yost, Joonho Lee, David Small,
  Daniel Levine, Susi Lehtola, Hugh Burton, Evgeny Epifanovsky
 -----------------------------------------------------------------------
 Exchange:  B97M-V      Correlation:  B97M-V
 Using SG-2 standard quadrature grid
 Nonlocal Correlation:  rVV10 with C = 0.0100 and b = 6.00 and scale = 1.00000
 Grid used for NLC:  SG-1 standard quadrature
 using 12 threads for integral computing
 -------------------------------------------------------
 OpenMP Integral computing Module                
 Release: version 1.0, May 2013, Q-Chem Inc. Pittsburgh 
 -------------------------------------------------------
 -------------------------------------------------------
 OpenMP BLAS3 based DFT computing Module                
 Release: version 1.0, May 2013, Q-Chem Inc. Pittsburgh 
 -------------------------------------------------------
 -------------------------------------------------------
 OpenMP BLAS3 based DFT computing Module                
 Release: version 1.0, May 2013, Q-Chem Inc. Pittsburgh 
 -------------------------------------------------------
 -------------------------------------------------------
 OpenMP BLAS3 based DFT computing Module                
 Release: version 1.0, May 2013, Q-Chem Inc. Pittsburgh 
 -------------------------------------------------------
 Nonlocal correlation = 0.940073157378
 A unrestricted SCF calculation will be
 performed using DIIS, GDM
 SCF converges when RMS gradient is below 1.0e-08
 ---------------------------------------
  Cycle       Energy         DIIS error
 ---------------------------------------
 Nonlocal correlation = 9.899736994789e-01
    1   -2721.3225485634      2.53e-02  
    2   -2712.8149062318      4.32e-03  Done DIIS. Switching to GDM
 ---------------------------------------
  Cycle       Energy        RMS Gradient
 ---------------------------------------
 Nonlocal correlation = 9.865289496670e-01
    1   -2712.8149062318      7.35e-01   Descent step
 Nonlocal correlation = 9.840462149880e-01
    2   -2713.5895616037      5.29e-01   Descent step
 Nonlocal correlation = 9.804619525347e-01
    3   -2713.8907559139      2.65e-01   Descent step
 Nonlocal correlation = 9.803229031530e-01
    4   -2714.0064380945      4.80e-01   Descent step
 Nonlocal correlation = 9.803378296242e-01
    5   -2713.5776326976      9.82e-01  Line search: overstep
 Nonlocal correlation = 9.779196633979e-01
    6   -2714.0967644206      7.68e-02   Descent step
 Nonlocal correlation = 9.776870733370e-01
    7   -2714.1067075425      6.17e-01   Descent step
 Nonlocal correlation = 9.778390385881e-01
    8   -2713.7175618358      6.77e-01  Line search: overstep
 Nonlocal correlation = 9.780539845118e-01
    9   -2714.1690246608      1.28e-01   Descent step
 Nonlocal correlation = 9.778413562188e-01
   10   -2713.9102528942      8.34e-01  Line search: overstep
 Nonlocal correlation = 9.791690827548e-01
   11   -2714.1787789580      8.75e-02   Normal BFGS step
 Nonlocal correlation = 9.773958466823e-01
   12   -2714.1854049271      7.62e-02   Normal BFGS step
 Nonlocal correlation = 9.767513442613e-01
   13   -2714.1989398575      1.56e-01   Normal BFGS step
 Nonlocal correlation = 9.770741334949e-01
   14   -2714.1978071789      1.51e-01  Line search: overstep
 Nonlocal correlation = 9.785612389234e-01
   15   -2714.2175527525      3.98e-02   Normal BFGS step
 Nonlocal correlation = 9.785807683279e-01
   16   -2714.2223571387      6.79e-02   Normal BFGS step
 Nonlocal correlation = 9.779275465862e-01
   17   -2714.2268679604      6.18e-02   Normal BFGS step
 Nonlocal correlation = 9.779135237705e-01
   18   -2714.2294142971      3.06e-02   Normal BFGS step
 Nonlocal correlation = 9.782300887746e-01
   19   -2714.2305190867      1.58e-02   Normal BFGS step
 Nonlocal correlation = 9.782340282156e-01
   20   -2714.2311743843      1.07e-02   Normal BFGS step
 Nonlocal correlation = 9.780598251309e-01
   21   -2714.2315697470      5.97e-03   Normal BFGS step
 Nonlocal correlation = 9.779753465798e-01
   22   -2714.2319312800      8.09e-03   Normal BFGS step
 Nonlocal correlation = 9.780655141154e-01
   23   -2714.2322655941      7.42e-03   Normal BFGS step
 Nonlocal correlation = 9.781056834007e-01
   24   -2714.2328213202      7.05e-03   Normal BFGS step
 Nonlocal correlation = 9.780708527049e-01
   25   -2714.2333063640      6.25e-03   Normal BFGS step
 Nonlocal correlation = 9.780749586937e-01
   26   -2714.2336728763      1.04e-02   Normal BFGS step
 Nonlocal correlation = 9.780394083587e-01
   27   -2714.2338051619      4.69e-03   Normal BFGS step
 Nonlocal correlation = 9.780083427029e-01
   28   -2714.2339853400      3.90e-03   Normal BFGS step
 Nonlocal correlation = 9.780766188902e-01
   29   -2714.2340632035      3.36e-03   Normal BFGS step
 Nonlocal correlation = 9.780359626626e-01
   30   -2714.2340089656      8.83e-03  Line search: overstep
 Nonlocal correlation = 9.779867845331e-01
   31   -2714.2341139166      4.91e-03   Normal BFGS step
 Nonlocal correlation = 9.780316511433e-01
   32   -2714.2341573853      3.52e-03   Normal BFGS step
 Nonlocal correlation = 9.780091661718e-01
   33   -2714.2341589580      5.26e-03   Normal BFGS step
 Nonlocal correlation = 9.780011840657e-01
   34   -2714.2341915890      8.24e-04   Normal BFGS step
 Nonlocal correlation = 9.780052522717e-01
   35   -2714.2341908935      2.18e-03  Line search: overstep
 Nonlocal correlation = 9.780106924275e-01
   36   -2714.2341987420      1.18e-03   Normal BFGS step
 Nonlocal correlation = 9.780078049701e-01
   37   -2714.2341982508      1.36e-03  Line search: overstep
 Nonlocal correlation = 9.780058275020e-01
   38   -2714.2342005592      3.99e-04   Normal BFGS step
 Nonlocal correlation = 9.780083102706e-01
   39   -2714.2342009541      4.53e-04   Normal BFGS step
 Nonlocal correlation = 9.780065317244e-01
   40   -2714.2342017554      2.75e-04   Normal BFGS step
 Nonlocal correlation = 9.780075993465e-01
   41   -2714.2342017601      2.14e-04   Normal BFGS step
 Nonlocal correlation = 9.780032136167e-01
   42   -2714.2342019962      4.04e-04   Normal BFGS step
 Nonlocal correlation = 9.780055236523e-01
   43   -2714.2342019496      3.56e-04  Line search: overstep
 Nonlocal correlation = 9.780064486061e-01
   44   -2714.2342021908      1.67e-04   Normal BFGS step
 Nonlocal correlation = 9.780070041205e-01
   45   -2714.2342022626      1.12e-04   Normal BFGS step
 Nonlocal correlation = 9.780056694322e-01
   46   -2714.2342023207      1.79e-04   Normal BFGS step
 Nonlocal correlation = 9.780059007512e-01
   47   -2714.2342023528      4.70e-05   Normal BFGS step
 Nonlocal correlation = 9.780064990919e-01
   48   -2714.2342023777      2.73e-05   Normal BFGS step
 Nonlocal correlation = 9.780063060331e-01
   49   -2714.2342023833      2.50e-05   Normal BFGS step
 Nonlocal correlation = 9.780061443980e-01
   50   -2714.2342023886      1.85e-05   Normal BFGS step
 Nonlocal correlation = 9.780062498660e-01
   51   -2714.2342023892      1.27e-05   Normal BFGS step
 Nonlocal correlation = 9.780062574323e-01
   52   -2714.2342023899      4.30e-06   Normal BFGS step
 Nonlocal correlation = 9.780062629876e-01
   53   -2714.2342023900      5.32e-06   Normal BFGS step
 Nonlocal correlation = 9.780062069690e-01
   54   -2714.2342023902      4.07e-06   Normal BFGS step
 Nonlocal correlation = 9.780062495909e-01
   55   -2714.2342023900      9.98e-06   Normal BFGS step
 Nonlocal correlation = 9.780062659858e-01
   56   -2714.2342023902      2.96e-06   Normal BFGS step
 Nonlocal correlation = 9.780062495395e-01
   57   -2714.2342023902      6.51e-06   Normal BFGS step
 Nonlocal correlation = 9.780062535598e-01
   58   -2714.2342023902      3.06e-06   Normal BFGS step
 Nonlocal correlation = 9.780062490720e-01
   59   -2714.2342023902      4.07e-06   Normal BFGS step
 Nonlocal correlation = 9.780062587111e-01
   60   -2714.2342023902      7.19e-07   Normal BFGS step
 Nonlocal correlation = 9.780062526887e-01
   61   -2714.2342023902      1.33e-06   Normal BFGS step
 Nonlocal correlation = 9.780062528418e-01
   62   -2714.2342023902      7.07e-07   Normal BFGS step
 Nonlocal correlation = 9.780062520645e-01
   63   -2714.2342023902      1.81e-06   Normal BFGS step
 Nonlocal correlation = 9.780062552056e-01
   64   -2714.2342023903      1.12e-07   Normal BFGS step
 Nonlocal correlation = 9.780062539013e-01
   65   -2714.2342023903      1.66e-07   Normal BFGS step
 Nonlocal correlation = 9.780062526202e-01
   66   -2714.2342023903      8.57e-08   Normal BFGS step
 Nonlocal correlation = 9.780062534446e-01
   67   -2714.2342023903      2.09e-07   Normal BFGS step
 Nonlocal correlation = 9.780062540436e-01
   68   -2714.2342023903      5.35e-08   Normal BFGS step
  /scratch/qcdevops/jenkins/workspace/build_qchem_linux_distrib/tags/qc511/qchem/libgscf/libgscf/opt/gdm.C::WARNING energy changes are now smaller than effective accuracy.
  /scratch/qcdevops/jenkins/workspace/build_qchem_linux_distrib/tags/qc511/qchem/libgscf/libgscf/opt/gdm.C::        calculation will continue, but THRESH should be increased
  /scratch/qcdevops/jenkins/workspace/build_qchem_linux_distrib/tags/qc511/qchem/libgscf/libgscf/opt/gdm.C::        or SCF_CONVERGENCE decreased. 
  /scratch/qcdevops/jenkins/workspace/build_qchem_linux_distrib/tags/qc511/qchem/libgscf/libgscf/opt/gdm.C::        effective_thresh = 6.86e-09
 Nonlocal correlation = 9.780062538489e-01
   69   -2714.2342023902      4.88e-08   Normal BFGS step
 Nonlocal correlation = 9.780062535954e-01
   70   -2714.2342023902      4.21e-08   Normal BFGS step
 Nonlocal correlation = 9.780062536249e-01
   71   -2714.2342023903      3.05e-08   Normal BFGS step
 Nonlocal correlation = 9.780062539398e-01
   72   -2714.2342023903      2.20e-08   Normal BFGS step
  /scratch/qcdevops/jenkins/workspace/build_qchem_linux_distrib/tags/qc511/qchem/libgscf/libgscf/opt/gdm.C::WARNING energy changes are now smaller than effective accuracy.
  /scratch/qcdevops/jenkins/workspace/build_qchem_linux_distrib/tags/qc511/qchem/libgscf/libgscf/opt/gdm.C::        calculation will continue, but THRESH should be increased
  /scratch/qcdevops/jenkins/workspace/build_qchem_linux_distrib/tags/qc511/qchem/libgscf/libgscf/opt/gdm.C::        or SCF_CONVERGENCE decreased. 
  /scratch/qcdevops/jenkins/workspace/build_qchem_linux_distrib/tags/qc511/qchem/libgscf/libgscf/opt/gdm.C::        effective_thresh = 9.19e-09
 Nonlocal correlation = 9.780062538214e-01
   73   -2714.2342023902      2.19e-08   Normal BFGS step
 Nonlocal correlation = 9.780062537695e-01
   74   -2714.2342023903      4.27e-08   Normal BFGS step
 Nonlocal correlation = 9.780062537384e-01
   75   -2714.2342023903      3.49e-08   Normal BFGS step
  /scratch/qcdevops/jenkins/workspace/build_qchem_linux_distrib/tags/qc511/qchem/libgscf/libgscf/opt/gdm.C::WARNING energy changes are now smaller than effective accuracy.
  /scratch/qcdevops/jenkins/workspace/build_qchem_linux_distrib/tags/qc511/qchem/libgscf/libgscf/opt/gdm.C::        calculation will continue, but THRESH should be increased
  /scratch/qcdevops/jenkins/workspace/build_qchem_linux_distrib/tags/qc511/qchem/libgscf/libgscf/opt/gdm.C::        or SCF_CONVERGENCE decreased. 
  /scratch/qcdevops/jenkins/workspace/build_qchem_linux_distrib/tags/qc511/qchem/libgscf/libgscf/opt/gdm.C::        effective_thresh = 9.19e-09
 Nonlocal correlation = 9.780062537169e-01
   76   -2714.2342023902      2.08e-08   Normal BFGS step
 Nonlocal correlation = 9.780062538464e-01
   77   -2714.2342023903      5.11e-08   Normal BFGS step
 Nonlocal correlation = 9.780062536988e-01
   78   -2714.2342023903      1.37e-08   Normal BFGS step
 Nonlocal correlation = 9.780062537392e-01
   79   -2714.2342023903      2.18e-08   Normal BFGS step
  /scratch/qcdevops/jenkins/workspace/build_qchem_linux_distrib/tags/qc511/qchem/libgscf/libgscf/opt/gdm.C::WARNING energy changes are now smaller than effective accuracy.
  /scratch/qcdevops/jenkins/workspace/build_qchem_linux_distrib/tags/qc511/qchem/libgscf/libgscf/opt/gdm.C::        calculation will continue, but THRESH should be increased
  /scratch/qcdevops/jenkins/workspace/build_qchem_linux_distrib/tags/qc511/qchem/libgscf/libgscf/opt/gdm.C::        or SCF_CONVERGENCE decreased. 
  /scratch/qcdevops/jenkins/workspace/build_qchem_linux_distrib/tags/qc511/qchem/libgscf/libgscf/opt/gdm.C::        effective_thresh = 9.19e-09
 Nonlocal correlation = 9.780062538203e-01
   80   -2714.2342023903      4.56e-09  Convergence criterion met
 ---------------------------------------
 SCF time:   CPU 231891.90s  wall 19425.00s 
<S^2> =          3.159400411
 SCF   energy in the final basis set =    -2714.2342023903
 Total energy in the final basis set =    -2714.2342023903
 
 --------------------------------------------------------------
 
                    Orbital Energies (a.u.)
 --------------------------------------------------------------
 
 Alpha MOs
 -- Occupied --
******* -30.409 -26.150 -26.148 -26.128 -19.397 -19.376 -14.657
-14.653 -14.639 -14.622 -14.612 -14.576 -10.513 -10.497 -10.493
-10.470 -10.469 -10.466 -10.464 -10.463 -10.454 -10.451 -10.451
-10.422 -10.408 -10.405 -10.403 -10.397 -10.392 -10.388 -10.385
-10.377 -10.372 -10.354 -10.353 -10.345 -10.344  -3.823  -2.573
 -2.567  -2.529  -1.267  -1.266  -1.253  -1.242  -1.123  -1.109
 -1.109  -1.054  -1.026  -1.007  -0.985  -0.974  -0.969  -0.960
 -0.948  -0.935  -0.890  -0.863  -0.857  -0.856  -0.843  -0.836
 -0.833  -0.828  -0.828  -0.818  -0.815  -0.806  -0.789  -0.777
 -0.774  -0.759  -0.751  -0.731  -0.708  -0.704  -0.692  -0.688
 -0.681  -0.674  -0.671  -0.664  -0.661  -0.660  -0.658  -0.654
 -0.649  -0.644  -0.641  -0.636  -0.632  -0.629  -0.623  -0.611
 -0.605  -0.598  -0.595  -0.588  -0.587  -0.586  -0.581  -0.579
 -0.571  -0.569  -0.567  -0.563  -0.559  -0.556  -0.551  -0.548
 -0.542  -0.533  -0.529  -0.521  -0.516  -0.514  -0.510  -0.509
 -0.503  -0.500  -0.494  -0.489  -0.480  -0.476  -0.472  -0.471
 -0.470  -0.467  -0.458  -0.453  -0.444  -0.419  -0.403
 -- Virtual --
 -0.391  -0.357  -0.284  -0.264  -0.259  -0.252  -0.232  -0.229
 -0.216  -0.209  -0.202  -0.183  -0.178  -0.162  -0.158  -0.152
 -0.141  -0.139  -0.137  -0.131  -0.123  -0.119  -0.114  -0.110
 -0.106  -0.104  -0.103  -0.095  -0.093  -0.090  -0.089  -0.081
 -0.076  -0.075  -0.072  -0.071  -0.067  -0.061  -0.059  -0.056
 -0.052  -0.050  -0.046  -0.041  -0.036  -0.031  -0.026  -0.020
 -0.017  -0.011  -0.007  -0.004   0.001   0.002   0.011   0.012
  0.015   0.020   0.023   0.031   0.035   0.045   0.049   0.059
  0.063   0.068   0.071   0.077   0.080   0.093   0.099   0.106
  0.109   0.118   0.122   0.135   0.139   0.143   0.147   0.153
  0.155   0.159   0.165   0.183   0.190   0.204   0.211   0.216
  0.223   0.232   0.236   0.244   0.248   0.252   0.255   0.264
  0.264   0.268   0.272   0.272   0.280   0.285   0.288   0.292
  0.296   0.298   0.304   0.313   0.317   0.321   0.321   0.325
  0.336   0.338   0.342   0.345   0.350   0.354   0.359   0.370
  0.374   0.388   0.391   0.397   0.401   0.406   0.411   0.421
  0.425   0.426   0.427   0.436   0.439   0.448   0.452   0.456
  0.458   0.461   0.463   0.478   0.480   0.484   0.486   0.488
  0.491   0.496   0.498   0.499   0.503   0.508   0.512   0.515
  0.518   0.519   0.521   0.523   0.526   0.528   0.531   0.534
  0.537   0.538   0.543   0.546   0.554   0.554   0.559   0.562
  0.563   0.564   0.568   0.578   0.581   0.586   0.590   0.594
  0.597   0.605   0.606   0.609   0.616   0.620   0.624   0.628
  0.636   0.644   0.646   0.655   0.657   0.668   0.672   0.680
  0.684   0.690   0.706   0.717   0.726   0.729   0.737   0.747
  0.753   0.760   0.764   0.774   0.786   0.798   0.809   0.814
  0.832   0.835   0.836   0.852   0.871   0.878   0.889   0.893
  0.908   0.916   0.927   0.931   0.941   0.946   0.951   0.963
  0.976   0.983   1.014   1.019   1.021   1.034   1.038   1.062
  1.065   1.074   1.089   1.096   1.107   1.121   1.135   1.150
  1.159   1.175   1.201   1.212   1.230   1.254   1.268   1.285
  1.300   1.352   1.363   1.377   1.483   1.486   1.551
 
 Beta MOs
 -- Occupied --
******* -30.342 -26.091 -26.090 -26.076 -19.400 -19.396 -14.657
-14.653 -14.639 -14.622 -14.612 -14.576 -10.512 -10.497 -10.493
-10.470 -10.469 -10.466 -10.466 -10.463 -10.454 -10.451 -10.451
-10.422 -10.409 -10.406 -10.404 -10.396 -10.392 -10.390 -10.385
-10.377 -10.373 -10.354 -10.353 -10.345 -10.344  -3.667  -2.409
 -2.402  -2.374  -1.271  -1.266  -1.253  -1.241  -1.123  -1.112
 -1.109  -1.105  -1.027  -1.011  -0.984  -0.973  -0.968  -0.960
 -0.951  -0.935  -0.891  -0.866  -0.859  -0.856  -0.842  -0.836
 -0.832  -0.828  -0.827  -0.818  -0.817  -0.805  -0.788  -0.777
 -0.773  -0.762  -0.752  -0.732  -0.709  -0.701  -0.694  -0.690
 -0.679  -0.671  -0.669  -0.663  -0.660  -0.658  -0.657  -0.652
 -0.646  -0.645  -0.642  -0.636  -0.630  -0.623  -0.617  -0.615
 -0.605  -0.599  -0.591  -0.589  -0.586  -0.580  -0.579  -0.571
 -0.569  -0.561  -0.559  -0.555  -0.552  -0.544  -0.541  -0.537
 -0.531  -0.528  -0.523  -0.517  -0.514  -0.504  -0.502  -0.499
 -0.494  -0.484  -0.479  -0.474  -0.472  -0.471  -0.469  -0.468
 -0.454  -0.451  -0.435  -0.423  -0.407
 -- Virtual --
 -0.383  -0.346  -0.334  -0.319  -0.274  -0.268  -0.259  -0.246
 -0.232  -0.230  -0.214  -0.206  -0.200  -0.183  -0.177  -0.163
 -0.161  -0.151  -0.141  -0.140  -0.138  -0.130  -0.124  -0.120
 -0.115  -0.111  -0.107  -0.104  -0.103  -0.095  -0.093  -0.090
 -0.089  -0.080  -0.076  -0.075  -0.072  -0.072  -0.066  -0.060
 -0.059  -0.057  -0.051  -0.048  -0.046  -0.041  -0.035  -0.029
 -0.025  -0.020  -0.017  -0.012  -0.006  -0.001   0.002   0.008
  0.011   0.013   0.014   0.020   0.024   0.031   0.035   0.044
  0.049   0.058   0.062   0.069   0.070   0.077   0.081   0.092
  0.099   0.105   0.110   0.118   0.122   0.135   0.139   0.144
  0.146   0.153   0.155   0.160   0.167   0.184   0.191   0.204
  0.211   0.215   0.223   0.230   0.237   0.245   0.247   0.252
  0.255   0.264   0.266   0.268   0.272   0.273   0.280   0.285
  0.289   0.293   0.296   0.297   0.304   0.313   0.316   0.319
  0.321   0.325   0.335   0.337   0.341   0.346   0.349   0.354
  0.359   0.370   0.375   0.388   0.393   0.399   0.401   0.407
  0.410   0.420   0.424   0.427   0.428   0.436   0.440   0.448
  0.452   0.457   0.459   0.462   0.463   0.478   0.480   0.484
  0.486   0.488   0.492   0.496   0.498   0.499   0.503   0.508
  0.512   0.515   0.518   0.519   0.521   0.522   0.527   0.528
  0.531   0.535   0.537   0.539   0.543   0.547   0.554   0.554
  0.559   0.561   0.563   0.566   0.569   0.580   0.581   0.587
  0.591   0.595   0.597   0.605   0.607   0.609   0.617   0.621
  0.626   0.630   0.637   0.644   0.651   0.653   0.661   0.667
  0.674   0.681   0.685   0.692   0.706   0.715   0.727   0.732
  0.739   0.749   0.755   0.761   0.766   0.777   0.787   0.799
  0.812   0.819   0.828   0.835   0.844   0.857   0.879   0.887
  0.889   0.893   0.912   0.922   0.931   0.933   0.942   0.949
  0.958   0.967   0.980   0.985   1.014   1.019   1.028   1.032
  1.043   1.060   1.068   1.080   1.093   1.095   1.113   1.126
  1.135   1.157   1.160   1.182   1.201   1.221   1.237   1.256
  1.285   1.291   1.306   1.362   1.367   1.392   1.475   1.498
  1.549
 --------------------------------------------------------------
 
          Ground-State Mulliken Net Atomic Charges

     Atom                 Charge (a.u.)    Spin (a.u.)
  --------------------------------------------------------
      1 Fe                    1.314097       3.045656
      2 O                    -0.377385      -0.713312
      3 N                    -0.698539      -0.011310
      4 C                     0.347950       0.021202
      5 H                     0.169678       0.002724
      6 N                    -0.433641       0.006453
      7 H                     0.319139      -0.000062
      8 C                     0.109013       0.000644
      9 H                     0.172116      -0.000136
     10 C                     0.100764      -0.001200
     11 H                     0.148177       0.000196
     12 N                    -0.698092      -0.006996
     13 C                     0.313529       0.028662
     14 H                     0.234987       0.002594
     15 N                    -0.430632       0.002854
     16 H                     0.316755      -0.000158
     17 C                     0.126186       0.004354
     18 H                     0.180060      -0.000284
     19 C                     0.035967       0.000271
     20 H                     0.151746       0.000192
     21 N                    -0.747014       0.012073
     22 H                     0.334704       0.002161
     23 C                    -0.000445      -0.019437
     24 H                     0.177404       0.000661
     25 C                     0.084002       0.036570
     26 H                     0.170357      -0.001517
     27 N                    -0.276437      -0.008014
     28 C                     0.175609       0.021561
     29 H                     0.213485      -0.000674
     30 H                     0.112053       0.000233
     31 H                     0.172544      -0.001157
     32 H                     0.094406      -0.002391
     33 O                    -0.489284      -0.057052
     34 H                     0.122510      -0.000675
     35 H                     0.078674       0.000088
     36 C                    -0.207725       0.000135
     37 C                    -0.400916       0.004263
     38 H                     0.102743       0.009610
     39 C                    -0.236676      -0.043025
     40 H                     0.076211       0.007827
     41 H                     0.146207      -0.000363
     42 H                     0.129221       0.000024
     43 C                    -0.182293       0.003846
     44 C                     0.170156      -0.006545
     45 C                     0.070440      -0.005645
     46 C                    -0.128617      -0.000922
     47 H                     0.136555       0.000140
     48 C                    -0.178254      -0.174755
     49 C                    -0.403346       0.000950
     50 H                     0.175241      -0.001408
     51 C                    -0.123998      -0.108117
     52 H                     0.145662      -0.001613
     53 C                     0.089792      -0.072621
     54 C                    -0.140227      -0.000282
     55 H                     0.133827      -0.000116
     56 H                     0.135763      -0.000288
     57 H                     0.167673       0.009891
     58 C                    -0.044528       0.043452
     59 C                    -0.038667      -0.022729
     60 H                     0.133015       0.001059
     61 C                    -0.223999      -0.000978
     62 H                     0.131175       0.000048
     63 H                     0.112337      -0.000129
     64 H                     0.147916       0.000198
     65 H                     0.132579      -0.000745
     66 H                     0.133274       0.000065
     67 C                    -0.273802      -0.000282
     68 H                     0.162597      -0.002208
     69 H                     0.158011      -0.000568
     70 H                     0.168209      -0.002947
  --------------------------------------------------------
  Sum of atomic charges =     2.000000
  Sum of spin   charges =     2.000000

 -----------------------------------------------------------------
                    Cartesian Multipole Moments
 -----------------------------------------------------------------
    Charge (ESU x 10^10)
                 9.6064
    Dipole Moment (Debye)
         X      -3.5325      Y       8.2549      Z      -0.2768
       Tot       8.9833
    Quadrupole Moments (Debye-Ang)
        XX     -97.5550     XY      11.8748     YY     -83.9439
        XZ      13.3127     YZ       2.1614     ZZ    -193.5365
    Octopole Moments (Debye-Ang^2)
       XXX     -71.6683    XXY     106.6872    XYY      -3.3557
       YYY     276.6101    XXZ     -39.2112    XYZ     -58.2281
       YYZ     -86.1900    XZZ      -6.5383    YZZ       1.9550
       ZZZ       3.1525
    Hexadecapole Moments (Debye-Ang^3)
      XXXX   -7277.5697   XXXY     474.9304   XXYY   -2261.5899
      XYYY     257.6701   YYYY   -6153.2970   XXXZ     380.8918
      XXYZ     144.2947   XYYZ     -52.4088   YYYZ    -186.0160
      XXZZ   -1788.7237   XYZZ      16.0964   YYZZ   -1746.3561
      XZZZ     111.2719   YZZZ      21.5429   ZZZZ   -1944.3065
 -----------------------------------------------------------------
 Calculating analytic gradient of the SCF energy
 Gradient of SCF Energy
            1           2           3           4           5           6
    1  -0.0486102   0.0509973   0.0079229   0.0038675  -0.0001481   0.0023211
    2   0.0284374  -0.0179033   0.0085862  -0.0069674  -0.0037900   0.0028739
    3   0.0220222   0.0070715   0.0023804   0.0014889   0.0073701   0.0016271
            7           8           9          10          11          12
    1  -0.0001250   0.0028513   0.0000289  -0.0007122  -0.0005497  -0.0057469
    2  -0.0027437  -0.0003935  -0.0002551   0.0027763  -0.0001456  -0.0133073
    3   0.0001959   0.0014574  -0.0003666   0.0007292  -0.0003763   0.0010494
           13          14          15          16          17          18
    1   0.0072037   0.0059184  -0.0002001   0.0009392   0.0009337  -0.0001780
    2   0.0043141   0.0023410  -0.0051081   0.0016829  -0.0029340   0.0009117
    3   0.0007338   0.0001823  -0.0004599  -0.0003389  -0.0004508   0.0001001
           19          20          21          22          23          24
    1  -0.0016749  -0.0005291   0.0112202  -0.0005492  -0.0024455  -0.0004780
    2  -0.0000679   0.0001934   0.0008581   0.0013032  -0.0001256   0.0001323
    3   0.0006733   0.0003270  -0.0137307   0.0012113  -0.0024506   0.0002658
           25          26          27          28          29          30
    1  -0.0006738  -0.0008019   0.0048026   0.0031297   0.0097497   0.0004211
    2   0.0030310  -0.0003918   0.0012856  -0.0163906  -0.0094588  -0.0002870
    3  -0.0000831   0.0003419   0.0010388  -0.0039273   0.0001677   0.0007600
           31          32          33          34          35          36
    1  -0.0058340   0.0021471  -0.0059414  -0.0026361   0.0010267   0.0008556
    2   0.0071393   0.0016527   0.0009927   0.0011547   0.0005524  -0.0014347
    3  -0.0007012  -0.0011092  -0.0091984   0.0015046   0.0014237  -0.0003652
           37          38          39          40          41          42
    1  -0.0072566   0.0004693  -0.0028631  -0.0046732   0.0004068  -0.0003708
    2   0.0084472   0.0000422   0.0024804   0.0014504  -0.0006853  -0.0001715
    3  -0.0003347   0.0016854  -0.0078706   0.0003833  -0.0010242   0.0008354
           43          44          45          46          47          48
    1  -0.0033819  -0.0066094   0.0021917  -0.0007474   0.0022059   0.0006621
    2   0.0005443  -0.0021926   0.0013356   0.0001315  -0.0000239  -0.0058900
    3  -0.0025182   0.0034173   0.0053832  -0.0016120   0.0001831   0.0034993
           49          50          51          52          53          54
    1  -0.0014443   0.0003751  -0.0068270   0.0007971  -0.0186594  -0.0001835
    2   0.0008670  -0.0005745  -0.0121921  -0.0005321  -0.0033910   0.0005267
    3   0.0019780  -0.0000069   0.0095900   0.0012414  -0.0159109   0.0007981
           55          56          57          58          59          60
    1   0.0011452  -0.0007544   0.0003402   0.0025025   0.0026224  -0.0014953
    2  -0.0008986  -0.0009102   0.0006501   0.0098884   0.0153227   0.0000625
    3  -0.0004956  -0.0006399   0.0005431  -0.0089122  -0.0106811   0.0003485
           61          62          63          64          65          66
    1   0.0001699   0.0009960  -0.0008113   0.0008418   0.0009486  -0.0004494
    2   0.0001904   0.0002914  -0.0003085  -0.0008267  -0.0000251  -0.0000520
    3  -0.0025143   0.0002042   0.0004125  -0.0006483   0.0012671   0.0004782
           67          68          69          70
    1   0.0010808  -0.0007474   0.0002839   0.0007194
    2  -0.0017814   0.0001322   0.0008731  -0.0012841
    3  -0.0001694   0.0007813  -0.0003297   0.0000742
 Max gradient component =       5.100E-02
 RMS gradient           =       6.994E-03
 Gradient time:  CPU 4765.39 s  wall 779.87 s
 Geometry Optimization Parameters
   NAtoms,    NIC,     NZ,  NCons,   NDum,   NFix, NCnnct, MaxDiis
       70     578       0       0       0       0       0       0


** GEOMETRY OPTIMIZATION IN DELOCALIZED INTERNAL COORDINATES **
   Searching for a Minimum

   Optimization Cycle:   1

                       Coordinates (Angstroms)
     ATOM                X               Y               Z
      1  Fe       -1.5866997906    1.1085965663   -0.4436011214
      2  O        -0.0340401650    0.4306809000   -1.1751080855
      3  N        -2.4927368606   -0.5375848991   -0.8980409932
      4  C        -2.0102053899   -1.7891024936   -0.7126618777
      5  H        -1.0678651479   -2.0598692890   -0.2511761857
      6  N        -2.9103019587   -2.6733781705   -1.1855908832
      7  H        -2.8103796300   -3.6846487882   -1.1606907820
      8  C        -4.0028461291   -1.9929921230   -1.7094606882
      9  H        -4.8420799202   -2.5026289701   -2.1659721356
     10  C        -3.7419035715   -0.6583134858   -1.5252053600
     11  H        -4.3391370302    0.1975133905   -1.8141401114
     12  N        -0.8919108312    2.9135124411   -0.4644194998
     13  C         0.3893345548    3.2715412938   -0.7170097038
     14  H         1.2192965196    2.6003484256   -0.9027174760
     15  N         0.4751664417    4.6166253736   -0.6977429882
     16  H         1.3229628913    5.1554041407   -0.8536354421
     17  C        -0.7745965564    5.1634664236   -0.4335776236
     18  H        -0.9435590110    6.2320708719   -0.3816837993
     19  C        -1.6262358315    4.0984427251   -0.2864822276
     20  H        -2.6942334283    4.1094365701   -0.1020669801
     21  N        -2.6767493066    1.4965745043    1.2644088913
     22  H        -2.2296633270    2.3180293670    1.6945603640
     23  C        -4.0744583728    1.6339464288    0.8990299038
     24  H        -4.4490112861    2.5195723244    0.3959359003
     25  C        -4.7065378581    0.5132961503    1.3465601554
     26  H        -5.7497567720    0.2339501494    1.2499106229
     27  N        -3.8005042038   -0.3296540980    2.0344493754
     28  C        -2.6427082660    0.2556304210    2.0337900612
     29  H        -1.7373565195   -0.0832214926    2.5299059721
     30  H         0.9720275879   -2.4153384526   -2.5826547882
     31  H        -1.3465818315   -1.7028301072    1.8732299172
     32  H        -1.0147047803   -4.0125480794    0.7242045338
     33  O         1.2967361043    0.4628515566    0.2990933184
     34  H        -0.0987734326   -0.4543748704    1.6277949946
     35  H         0.3935279595   -4.4388410847   -1.3837038642
     36  C         2.0025199240   -2.6985306974   -2.3086748661
     37  C        -0.2594322841   -1.5012875904    1.9051400328
     38  H         3.9141762823    4.0501611602   -1.6201119290
     39  C         0.4571890919   -2.4729164017    1.0037343824
     40  H         2.8178216199    2.1291906132   -0.4597885251
     41  H         2.3220926527   -3.5176926087   -2.9765296737
     42  H         2.6607108812   -1.8402407240   -2.5144191135
     43  C        -0.0158158785   -3.8965307082    1.1958386626
     44  C         1.4294018307   -2.1455296415    0.1083270730
     45  C         2.0414477823   -0.7958072814   -0.0236314192
     46  C         1.3209420850   -4.5284183932   -0.7853136941
     47  H         2.6423360216   -0.6500592185   -0.9242483056
     48  C         4.7935114690    3.8767049874   -0.9916280426
     49  C         2.0701351819   -3.1789312181   -0.8412422895
     50  H         0.0432932011   -1.6530505064    2.9591467443
     51  C         3.7176330522    1.9654420951    0.1431506005
     52  H        -0.1892359810   -4.0632423694    2.2759113361
     53  C         2.4692580380    0.0793207377    1.1150517217
     54  C         0.9458976219   -4.9356633202    0.6327929204
     55  H         1.9432794275   -5.2950276084   -1.2804792354
     56  H         0.4861232886   -5.9375510110    0.6455097375
     57  H         5.6415686520    4.5496448032   -1.1346493647
     58  C         4.8213451248    2.8761272513   -0.0822186454
     59  C         3.6738910221    0.9381697476    1.0338252993
     60  H         2.2030778009   -0.2765433861    2.1194440587
     61  C         3.5503281184   -3.3861928050   -0.4529951580
     62  H         1.8485913127   -4.9964687997    1.2682159403
     63  H         4.1089075179   -2.4342578862   -0.4694868182
     64  H         4.0430355285   -4.0728175031   -1.1641040892
     65  H         5.7253929659    2.7426570262    0.5213016939
     66  H         3.6442197128   -3.8106510004    0.5609459739
     67  C         4.7735706063    0.5440206441    1.9772643839
     68  H         4.4175094787    0.5609722897    3.0241833899
     69  H         5.6485501474    1.2036833083    1.9127088115
     70  H         5.1157285333   -0.4905235969    1.7832269998
   Point Group: c1    Number of degrees of freedom:   204


   Energy is  -2714.234202390


 Attempting to Generate Delocalized Internal Coordinates

204 Hessian modes will be used to form the next step
  Hessian Eigenvalues:
     0.002000    0.002362    0.003154    0.003327    0.003486    0.005007
     0.005325    0.006818    0.007537    0.008529    0.008632    0.008970
     0.010094    0.010490    0.011033    0.011181    0.011619    0.012652
     0.013816    0.015345    0.015611    0.015984    0.016343    0.016874
     0.018588    0.018840    0.019286    0.019333    0.019492    0.020095
     0.020455    0.020518    0.020579    0.020811    0.021812    0.021907
     0.022150    0.022387    0.023079    0.023122    0.023836    0.024733
     0.026578    0.027238    0.028705    0.028705    0.030368    0.030652
     0.036458    0.036728    0.042855    0.043612    0.045082    0.046593
     0.047914    0.049390    0.049748    0.051937    0.052655    0.053376
     0.054364    0.054728    0.055351    0.056205    0.056538    0.057825
     0.059969    0.061634    0.066468    0.069423    0.070257    0.073436
     0.077647    0.078258    0.081210    0.084145    0.085313    0.090677
     0.094987    0.096411    0.096886    0.098164    0.100702    0.101152
     0.104172    0.115334    0.119075    0.122152    0.124171    0.128888
     0.132803    0.137089    0.149326    0.159814    0.159831    0.159906
     0.159975    0.159978    0.159980    0.159993    0.159998    0.160000
     0.160000    0.160000    0.160000    0.160000    0.160000    0.160000
     0.160000    0.160000    0.160000    0.160000    0.160000    0.160000
     0.163334    0.173215    0.174038    0.178071    0.179120    0.185240
     0.189197    0.194416    0.211204    0.219998    0.220000    0.220116
     0.224492    0.228508    0.229068    0.230892    0.231460    0.231650
     0.240537    0.249669    0.249967    0.251239    0.270199    0.276351
     0.277997    0.280332    0.281470    0.287804    0.288007    0.294775
     0.303262    0.305171    0.310043    0.317592    0.322127    0.323728
     0.325249    0.328838    0.329122    0.329413    0.329694    0.330335
     0.330721    0.331765    0.331908    0.332256    0.332610    0.333244
     0.333304    0.334136    0.334157    0.335714    0.336372    0.338692
     0.339395    0.341409    0.342242    0.342781    0.345236    0.345325
     0.345804    0.350635    0.353696    0.354811    0.355322    0.355574
     0.356195    0.356496    0.356587    0.364170    0.384345    0.408469
     0.412328    0.413999    0.428686    0.436798    0.444639    0.448955
     0.449011    0.472335    0.473975    0.492168    0.495241    0.517005
     0.518860    0.526817    0.537361    0.538531    0.545162    0.646778

 Minimum Search - Taking Simple RFO Step
 Searching for Lamda that Minimizes Along All modes
 Value Taken    Lamda =  -0.05494262
 Calculated Step too Large.  Step scaled by  0.432901
 Step Taken.  Stepsize is  0.300000

                             Maximum     Tolerance    Cnvgd?
         Gradient           0.050639      0.000300      NO
         Displacement       0.162161      0.001200      NO
         Energy change     *********      0.000001      NO


 New Cartesian Coordinates Obtained by Inverse Iteration

 Displacement from previous Coordinates is:  2.824174
 ----------------------------------------------------------------
             Standard Nuclear Orientation (Angstroms)
    I     Atom           X                Y                Z
 ----------------------------------------------------------------
    1      Fe     -1.6261330245     1.0972280509    -0.4696393998
    2      O      -0.1061445399     0.4347844926    -1.2171337151
    3      N      -2.6132329458    -0.4721388093    -1.0529344095
    4      C      -2.1854641588    -1.7517417354    -1.0225155605
    5      H      -1.2373060123    -2.1029401776    -0.6389015967
    6      N      -3.1386942428    -2.5421653816    -1.5575119596
    7      H      -3.0811058439    -3.5517645331    -1.6477808034
    8      C      -4.2140887369    -1.7649232684    -1.9695277248
    9      H      -5.0882892145    -2.1844348395    -2.4511154652
   10      C      -3.8813275362    -0.4720631451    -1.6548983397
   11      H      -4.4426666413     0.4362903032    -1.8339540086
   12      N      -0.9028798956     2.9019412870    -0.4277347630
   13      C       0.3746475947     3.2532579779    -0.6911201187
   14      H       1.1942927252     2.5805775901    -0.9145663188
   15      N       0.4783408125     4.5971046008    -0.6227867603
   16      H       1.3306460210     5.1286401091    -0.7737752044
   17      C      -0.7583218736     5.1497940561    -0.3139147527
   18      H      -0.9130610336     6.2170399129    -0.2186513081
   19      C      -1.6183771459     4.0884752389    -0.1915648273
   20      H      -2.6825144595     4.1040240131     0.0119384500
   21      N      -2.6942618348     1.4536131195     1.2873834899
   22      H      -2.2319846770     2.2613243078     1.7259347337
   23      C      -4.0927724553     1.6069800512     0.9400997324
   24      H      -4.4650549386     2.5005851434     0.4497628608
   25      C      -4.7272216900     0.4833749934     1.3792555263
   26      H      -5.7723504377     0.2115589372     1.2871210787
   27      N      -3.8233144492    -0.3671758182     2.0600206241
   28      C      -2.6624091322     0.2145705927     2.0533711648
   29      H      -1.7480725316    -0.1123096717     2.5512396289
   30      H       0.9523245750    -2.5342241850    -2.5060305979
   31      H      -1.2839551702    -1.7696502013     1.9636869926
   32      H      -0.8835699502    -4.1116736447     0.9096171313
   33      O       1.2860004595     0.4540201546     0.2824252201
   34      H      -0.0852152694    -0.4873794863     1.6543894609
   35      H       0.4818030269    -4.5466833838    -1.2280432635
   36      C       1.9995464949    -2.7711346738    -2.2506433423
   37      C      -0.2019411440    -1.5292878598     1.9758072377
   38      H       3.8961754778     3.9958779999    -1.7148514189
   39      C       0.5354033113    -2.5040114402     1.0952063185
   40      H       2.8110895449     2.1062817477    -0.5034286806
   41      H       2.3316952045    -3.5980106121    -2.9014182148
   42      H       2.6197468783    -1.8962523051    -2.5012577133
   43      C       0.1235644419    -3.9378597857     1.3470461102
   44      C       1.4712369497    -2.1684418893     0.1615722608
   45      C       2.0407811372    -0.8077923398    -0.0228030823
   46      C       1.4283310260    -4.5802562823    -0.6525033598
   47      H       2.6265879380    -0.6720424339    -0.9341169009
   48      C       4.7797869010     3.8377789795    -1.0869886532
   49      C       2.1244607466    -3.2058763778    -0.7720215856
   50      H       0.1194041170    -1.6258017985     3.0306954143
   51      C       3.7168332612     1.9505245958     0.0926856107
   52      H      -0.0152224973    -4.0737396228     2.4356944144
   53      C       2.4728981472     0.0830183991     1.1032994566
   54      C       1.1098325146    -4.9557854718     0.7886306656
   55      H       2.0656535720    -5.3379463542    -1.1403133497
   56      H       0.6914541614    -5.9733067292     0.8475751267
   57      H       5.6266344160     4.5063711626    -1.2531161998
   58      C       4.8168290235     2.8539473338    -0.1555376206
   59      C       3.6756577320     0.9365271651     1.0042757914
   60      H       2.2185349758    -0.2644903185     2.1132492383
   61      C       3.6207444990    -3.3455747915    -0.4146403612
   62      H       2.0311128664    -4.9608436067     1.3988138522
   63      H       4.1439698101    -2.3750705647    -0.4755479990
   64      H       4.1198429535    -4.0354106364    -1.1169245145
   65      H       5.7256498286     2.7314866911     0.4415747771
   66      H       3.7568103986    -3.7342325555     0.6085647617
   67      C       4.7789741697     0.5574403513     1.9479815354
   68      H       4.4299103214     0.5918014455     2.9962236251
   69      H       5.6554134295     1.2127489383     1.8683406593
   70      H       5.1168486984    -0.4802290040     1.7684609303
 ----------------------------------------------------------------
 Molecular Point Group                 C1    NOp =  1
 Largest Abelian Subgroup              C1    NOp =  1
 Nuclear Repulsion Energy =  4443.1937535923 hartrees
 There are      135 alpha and      133 beta electrons
 Applying Cartesian multipole field
    Component          Value
    ---------          -----
     (2,0,0)        1.00000E-12
     (0,2,0)        2.00000E-12
     (0,0,2)       -3.00000E-11
 Nucleus-field energy     =    -0.0000000231 hartrees
 Requested basis set is VDZ
 There are 246 shells and 390 basis functions
 A cutoff of  1.0D-12 yielded  21322 shell pairs
 There are     55254 function pairs (     55891 Cartesian)
 Smallest overlap matrix eigenvalue = 7.50E-04
 Guess MOs from SCF MO coefficient file

 -----------------------------------------------------------------------
  General SCF calculation program by
  Eric Jon Sundstrom, Paul Horn, Yuezhi Mao, Dmitri Zuev, Alec White,
  David Stuck, Shaama M.S., Shane Yost, Joonho Lee, David Small,
  Daniel Levine, Susi Lehtola, Hugh Burton, Evgeny Epifanovsky
 -----------------------------------------------------------------------
 Exchange:  B97M-V      Correlation:  B97M-V
 Using SG-2 standard quadrature grid
 Nonlocal Correlation:  rVV10 with C = 0.0100 and b = 6.00 and scale = 1.00000
 Grid used for NLC:  SG-1 standard quadrature
 using 12 threads for integral computing
 -------------------------------------------------------
 OpenMP Integral computing Module                
 Release: version 1.0, May 2013, Q-Chem Inc. Pittsburgh 
 -------------------------------------------------------
 -------------------------------------------------------
 OpenMP BLAS3 based DFT computing Module                
 Release: version 1.0, May 2013, Q-Chem Inc. Pittsburgh 
 -------------------------------------------------------
 -------------------------------------------------------
 OpenMP BLAS3 based DFT computing Module                
 Release: version 1.0, May 2013, Q-Chem Inc. Pittsburgh 
 -------------------------------------------------------
 -------------------------------------------------------
 OpenMP BLAS3 based DFT computing Module                
 Release: version 1.0, May 2013, Q-Chem Inc. Pittsburgh 
 -------------------------------------------------------
 Nonlocal correlation = 0.981214318515
 A unrestricted SCF calculation will be
 performed using DIIS, GDM
 SCF converges when RMS gradient is below 1.0e-08
 ---------------------------------------
  Cycle       Energy         DIIS error
 ---------------------------------------
 Nonlocal correlation = 9.814053195307e-01
    1   -2714.2081655344      5.60e-04  
    2   -2714.2330025631      3.68e-04  Done DIIS. Switching to GDM
 ---------------------------------------
  Cycle       Energy        RMS Gradient
 ---------------------------------------
 Nonlocal correlation = 9.803083840625e-01
    1   -2714.2330025631      2.73e-01   Descent step
 Nonlocal correlation = 9.811358768662e-01
    2   -2714.0730659756      3.35e-01  Line search: overstep
 Nonlocal correlation = 9.810914009060e-01
    3   -2714.2464146541      3.96e-02   Normal BFGS step
 Nonlocal correlation = 9.811259468649e-01
    4   -2714.2242474367      1.85e-01  Line search: overstep
 Nonlocal correlation = 9.812578086415e-01
    5   -2714.2473102635      8.65e-03   Normal BFGS step
 Nonlocal correlation = 9.811821714885e-01
    6   -2714.2469286781      2.03e-02  Line search: overstep
 Nonlocal correlation = 9.812238341081e-01
    7   -2714.2478148685      8.23e-03   Normal BFGS step
 Nonlocal correlation = 9.811904836089e-01
    8   -2714.2479798874      5.84e-03   Normal BFGS step
 Nonlocal correlation = 9.811727044543e-01
    9   -2714.2481108818      2.84e-03   Normal BFGS step
 Nonlocal correlation = 9.811767313819e-01
   10   -2714.2481498394      2.94e-03   Normal BFGS step
 Nonlocal correlation = 9.811787382610e-01
   11   -2714.2481859517      2.28e-03   Normal BFGS step
 Nonlocal correlation = 9.811767112747e-01
   12   -2714.2482031914      1.42e-03   Normal BFGS step
 Nonlocal correlation = 9.811605785335e-01
   13   -2714.2482206547      1.24e-03   Normal BFGS step
 Nonlocal correlation = 9.811576893355e-01
   14   -2714.2482314154      8.96e-04   Normal BFGS step
 Nonlocal correlation = 9.811631780938e-01
   15   -2714.2482389859      6.99e-04   Normal BFGS step
 Nonlocal correlation = 9.811677915166e-01
   16   -2714.2482411410      6.30e-04   Normal BFGS step
 Nonlocal correlation = 9.811600347471e-01
   17   -2714.2482434511      5.53e-04   Normal BFGS step
 Nonlocal correlation = 9.811561262872e-01
   18   -2714.2482456362      4.22e-04   Normal BFGS step
 Nonlocal correlation = 9.811629484593e-01
   19   -2714.2482473455      3.03e-04   Normal BFGS step
 Nonlocal correlation = 9.811638745500e-01
   20   -2714.2482487158      2.18e-04   Normal BFGS step
 Nonlocal correlation = 9.811603671214e-01
   21   -2714.2482491653      2.73e-04   Normal BFGS step
 Nonlocal correlation = 9.811615831608e-01
   22   -2714.2482494991      2.17e-04   Normal BFGS step
 Nonlocal correlation = 9.811634832371e-01
   23   -2714.2482496042      2.57e-04   Normal BFGS step
 Nonlocal correlation = 9.811635280330e-01
   24   -2714.2482496235      4.21e-04   Normal BFGS step
 Nonlocal correlation = 9.811634960355e-01
   25   -2714.2482492785      6.71e-04  Line search: overstep
 Nonlocal correlation = 9.811598831028e-01
   26   -2714.2482496990      3.40e-04   Normal BFGS step
 Nonlocal correlation = 9.811619113688e-01
   27   -2714.2482496433      7.24e-04  Line search: overstep
 Nonlocal correlation = 9.811603513695e-01
   28   -2714.2482497860      1.27e-04   Normal BFGS step
 Nonlocal correlation = 9.811612987039e-01
   29   -2714.2482497417      2.38e-04  Line search: overstep
 Nonlocal correlation = 9.811615301547e-01
   30   -2714.2482498178      6.31e-05   Normal BFGS step
 Nonlocal correlation = 9.811619810128e-01
   31   -2714.2482498372      5.61e-05   Normal BFGS step
 Nonlocal correlation = 9.811617692920e-01
   32   -2714.2482498465      1.40e-05   Normal BFGS step
 Nonlocal correlation = 9.811616108255e-01
   33   -2714.2482498488      9.05e-06   Normal BFGS step
 Nonlocal correlation = 9.811617816485e-01
   34   -2714.2482498498      7.30e-06   Normal BFGS step
 Nonlocal correlation = 9.811617827950e-01
   35   -2714.2482498501      4.64e-06   Normal BFGS step
 Nonlocal correlation = 9.811617143876e-01
   36   -2714.2482498503      1.66e-06   Normal BFGS step
 Nonlocal correlation = 9.811617174208e-01
   37   -2714.2482498503      1.56e-06   Normal BFGS step
 Nonlocal correlation = 9.811617553329e-01
   38   -2714.2482498503      1.05e-06   Normal BFGS step
 Nonlocal correlation = 9.811617433221e-01
   39   -2714.2482498504      1.12e-06   Normal BFGS step
 Nonlocal correlation = 9.811617250144e-01
   40   -2714.2482498504      6.20e-07   Normal BFGS step
 Nonlocal correlation = 9.811617343758e-01
   41   -2714.2482498504      3.45e-07   Normal BFGS step
 Nonlocal correlation = 9.811617402887e-01
   42   -2714.2482498504      2.91e-07   Normal BFGS step
 Nonlocal correlation = 9.811617357071e-01
   43   -2714.2482498504      3.22e-07   Normal BFGS step
 Nonlocal correlation = 9.811617319681e-01
   44   -2714.2482498504      3.06e-07   Normal BFGS step
 Nonlocal correlation = 9.811617327397e-01
   45   -2714.2482498503      2.62e-07   Normal BFGS step
 Nonlocal correlation = 9.811617371242e-01
   46   -2714.2482498504      4.18e-07   Normal BFGS step
 Nonlocal correlation = 9.811617360105e-01
   47   -2714.2482498504      8.61e-07   Normal BFGS step
 Nonlocal correlation = 9.811617299623e-01
   48   -2714.2482498504      4.10e-07   Normal BFGS step
 Nonlocal correlation = 9.811617328931e-01
   49   -2714.2482498504      1.45e-06   Normal BFGS step
 Nonlocal correlation = 9.811617353506e-01
   50   -2714.2482498504      1.22e-07   Normal BFGS step
 Nonlocal correlation = 9.811617338760e-01
   51   -2714.2482498504      1.04e-07   Normal BFGS step
 Nonlocal correlation = 9.811617331018e-01
   52   -2714.2482498504      5.00e-08   Normal BFGS step
 Nonlocal correlation = 9.811617334145e-01
   53   -2714.2482498503      3.76e-08   Normal BFGS step
 Nonlocal correlation = 9.811617336458e-01
   54   -2714.2482498503      2.90e-08   Normal BFGS step
 Nonlocal correlation = 9.811617335759e-01
   55   -2714.2482498504      1.76e-08   Normal BFGS step
  /scratch/qcdevops/jenkins/workspace/build_qchem_linux_distrib/tags/qc511/qchem/libgscf/libgscf/opt/gdm.C::WARNING energy changes are now smaller than effective accuracy.
  /scratch/qcdevops/jenkins/workspace/build_qchem_linux_distrib/tags/qc511/qchem/libgscf/libgscf/opt/gdm.C::        calculation will continue, but THRESH should be increased
  /scratch/qcdevops/jenkins/workspace/build_qchem_linux_distrib/tags/qc511/qchem/libgscf/libgscf/opt/gdm.C::        or SCF_CONVERGENCE decreased. 
  /scratch/qcdevops/jenkins/workspace/build_qchem_linux_distrib/tags/qc511/qchem/libgscf/libgscf/opt/gdm.C::        effective_thresh = 7.42e-09
 Nonlocal correlation = 9.811617333990e-01
   56   -2714.2482498503      1.81e-08   Normal BFGS step
 Nonlocal correlation = 9.811617334503e-01
   57   -2714.2482498504      1.34e-08   Normal BFGS step
  /scratch/qcdevops/jenkins/workspace/build_qchem_linux_distrib/tags/qc511/qchem/libgscf/libgscf/opt/gdm.C::WARNING energy changes are now smaller than effective accuracy.
  /scratch/qcdevops/jenkins/workspace/build_qchem_linux_distrib/tags/qc511/qchem/libgscf/libgscf/opt/gdm.C::        calculation will continue, but THRESH should be increased
  /scratch/qcdevops/jenkins/workspace/build_qchem_linux_distrib/tags/qc511/qchem/libgscf/libgscf/opt/gdm.C::        or SCF_CONVERGENCE decreased. 
  /scratch/qcdevops/jenkins/workspace/build_qchem_linux_distrib/tags/qc511/qchem/libgscf/libgscf/opt/gdm.C::        effective_thresh = 7.42e-09
 Nonlocal correlation = 9.811617335682e-01
   58   -2714.2482498504      8.02e-09  Convergence criterion met
 ---------------------------------------
 SCF time:   CPU 160288.82s  wall 13431.00s 
<S^2> =          3.107522563
 SCF   energy in the final basis set =    -2714.2482498504
 Total energy in the final basis set =    -2714.2482498504
 
 --------------------------------------------------------------
 
                    Orbital Energies (a.u.)
 --------------------------------------------------------------
 
 Alpha MOs
 -- Occupied --
******* -30.400 -26.141 -26.139 -26.119 -19.394 -19.370 -14.652
-14.649 -14.639 -14.618 -14.611 -14.572 -10.508 -10.500 -10.489
-10.467 -10.465 -10.462 -10.462 -10.462 -10.454 -10.450 -10.447
-10.425 -10.408 -10.407 -10.400 -10.400 -10.391 -10.390 -10.382
-10.374 -10.372 -10.351 -10.350 -10.345 -10.343  -3.813  -2.562
 -2.557  -2.519  -1.263  -1.259  -1.253  -1.238  -1.119  -1.109
 -1.105  -1.054  -1.022  -1.009  -0.981  -0.971  -0.966  -0.957
 -0.950  -0.932  -0.886  -0.864  -0.855  -0.853  -0.842  -0.833
 -0.829  -0.828  -0.823  -0.818  -0.813  -0.802  -0.785  -0.776
 -0.769  -0.759  -0.748  -0.729  -0.709  -0.699  -0.690  -0.685
 -0.678  -0.671  -0.667  -0.659  -0.658  -0.657  -0.654  -0.650
 -0.645  -0.641  -0.640  -0.633  -0.628  -0.627  -0.620  -0.611
 -0.605  -0.598  -0.590  -0.588  -0.586  -0.585  -0.578  -0.576
 -0.568  -0.564  -0.563  -0.560  -0.557  -0.551  -0.550  -0.545
 -0.542  -0.530  -0.526  -0.520  -0.517  -0.512  -0.505  -0.505
 -0.501  -0.499  -0.494  -0.483  -0.476  -0.472  -0.469  -0.468
 -0.467  -0.464  -0.454  -0.452  -0.442  -0.416  -0.403
 -- Virtual --
 -0.390  -0.360  -0.280  -0.261  -0.258  -0.251  -0.229  -0.223
 -0.214  -0.206  -0.200  -0.182  -0.176  -0.161  -0.158  -0.149
 -0.141  -0.138  -0.136  -0.131  -0.123  -0.120  -0.115  -0.113
 -0.105  -0.104  -0.103  -0.099  -0.093  -0.092  -0.086  -0.082
 -0.078  -0.074  -0.072  -0.070  -0.066  -0.061  -0.058  -0.055
 -0.049  -0.049  -0.045  -0.042  -0.036  -0.034  -0.026  -0.022
 -0.016  -0.012  -0.008  -0.005  -0.001   0.002   0.010   0.012
  0.014   0.020   0.024   0.032   0.036   0.046   0.051   0.058
  0.063   0.069   0.073   0.076   0.083   0.090   0.102   0.107
  0.111   0.119   0.123   0.135   0.139   0.145   0.146   0.151
  0.154   0.156   0.167   0.181   0.189   0.204   0.211   0.216
  0.221   0.230   0.234   0.242   0.249   0.253   0.257   0.264
  0.266   0.269   0.273   0.275   0.277   0.284   0.289   0.293
  0.296   0.297   0.305   0.310   0.315   0.320   0.322   0.325
  0.330   0.338   0.341   0.342   0.346   0.353   0.358   0.366
  0.376   0.385   0.391   0.396   0.398   0.404   0.412   0.421
  0.424   0.425   0.427   0.436   0.440   0.448   0.450   0.457
  0.460   0.461   0.464   0.478   0.483   0.484   0.486   0.489
  0.490   0.494   0.497   0.500   0.504   0.507   0.512   0.516
  0.517   0.519   0.520   0.523   0.526   0.531   0.532   0.536
  0.538   0.542   0.545   0.548   0.552   0.557   0.561   0.561
  0.563   0.565   0.566   0.574   0.580   0.582   0.587   0.593
  0.594   0.597   0.601   0.604   0.607   0.617   0.619   0.627
  0.630   0.637   0.638   0.647   0.653   0.656   0.669   0.673
  0.681   0.685   0.694   0.699   0.711   0.715   0.725   0.736
  0.747   0.753   0.755   0.764   0.783   0.794   0.803   0.809
  0.818   0.821   0.826   0.839   0.858   0.872   0.876   0.888
  0.899   0.904   0.920   0.932   0.936   0.938   0.942   0.950
  0.964   0.979   0.994   1.012   1.016   1.025   1.033   1.051
  1.065   1.073   1.085   1.090   1.108   1.113   1.126   1.148
  1.153   1.173   1.195   1.200   1.201   1.235   1.248   1.275
  1.286   1.319   1.342   1.371   1.482   1.485   1.533
 
 Beta MOs
 -- Occupied --
******* -30.335 -26.084 -26.082 -26.068 -19.397 -19.385 -14.652
-14.649 -14.639 -14.618 -14.611 -14.573 -10.508 -10.500 -10.489
-10.466 -10.465 -10.464 -10.462 -10.462 -10.454 -10.450 -10.447
-10.425 -10.409 -10.409 -10.401 -10.399 -10.394 -10.390 -10.382
-10.374 -10.372 -10.352 -10.350 -10.345 -10.343  -3.660  -2.404
 -2.395  -2.367  -1.263  -1.262  -1.253  -1.237  -1.119  -1.109
 -1.105  -1.096  -1.023  -1.013  -0.981  -0.971  -0.966  -0.957
 -0.954  -0.933  -0.888  -0.868  -0.858  -0.852  -0.841  -0.833
 -0.829  -0.828  -0.823  -0.817  -0.815  -0.801  -0.785  -0.776
 -0.769  -0.762  -0.749  -0.730  -0.710  -0.695  -0.691  -0.687
 -0.676  -0.668  -0.666  -0.658  -0.657  -0.656  -0.653  -0.649
 -0.643  -0.642  -0.640  -0.633  -0.628  -0.620  -0.614  -0.611
 -0.606  -0.599  -0.591  -0.587  -0.585  -0.578  -0.576  -0.569
 -0.566  -0.559  -0.557  -0.553  -0.547  -0.544  -0.537  -0.533
 -0.527  -0.526  -0.523  -0.518  -0.512  -0.505  -0.501  -0.498
 -0.488  -0.479  -0.475  -0.471  -0.469  -0.468  -0.466  -0.465
 -0.452  -0.449  -0.427  -0.422  -0.407
 -- Virtual --
 -0.376  -0.337  -0.327  -0.313  -0.271  -0.269  -0.255  -0.246
 -0.228  -0.226  -0.212  -0.203  -0.198  -0.182  -0.176  -0.164
 -0.159  -0.147  -0.141  -0.140  -0.137  -0.129  -0.123  -0.122
 -0.116  -0.113  -0.106  -0.105  -0.103  -0.098  -0.093  -0.091
 -0.086  -0.083  -0.077  -0.074  -0.073  -0.069  -0.063  -0.061
 -0.058  -0.055  -0.049  -0.048  -0.044  -0.042  -0.036  -0.034
 -0.027  -0.020  -0.016  -0.012  -0.005  -0.003  -0.000   0.010
  0.010   0.013   0.014   0.019   0.024   0.032   0.036   0.046
  0.051   0.058   0.063   0.070   0.072   0.076   0.083   0.089
  0.102   0.107   0.112   0.119   0.122   0.134   0.139   0.144
  0.146   0.152   0.153   0.157   0.168   0.182   0.189   0.204
  0.211   0.215   0.221   0.229   0.235   0.242   0.249   0.253
  0.257   0.266   0.267   0.269   0.272   0.275   0.278   0.284
  0.290   0.293   0.295   0.297   0.305   0.310   0.313   0.318
  0.322   0.324   0.330   0.336   0.339   0.343   0.345   0.353
  0.357   0.366   0.378   0.385   0.392   0.397   0.399   0.403
  0.412   0.422   0.422   0.425   0.427   0.435   0.442   0.448
  0.449   0.458   0.460   0.462   0.463   0.478   0.483   0.485
  0.486   0.489   0.491   0.494   0.497   0.500   0.504   0.507
  0.512   0.516   0.517   0.519   0.519   0.523   0.526   0.530
  0.533   0.536   0.539   0.542   0.545   0.550   0.553   0.557
  0.561   0.561   0.563   0.564   0.567   0.575   0.580   0.583
  0.588   0.593   0.595   0.599   0.602   0.605   0.608   0.618
  0.620   0.628   0.630   0.637   0.644   0.646   0.654   0.658
  0.673   0.674   0.681   0.687   0.695   0.700   0.713   0.716
  0.725   0.739   0.750   0.754   0.757   0.768   0.783   0.795
  0.804   0.815   0.820   0.821   0.835   0.839   0.865   0.870
  0.885   0.892   0.911   0.915   0.924   0.933   0.939   0.940
  0.948   0.953   0.967   0.983   0.994   1.009   1.022   1.027
  1.037   1.056   1.064   1.076   1.083   1.095   1.114   1.117
  1.127   1.152   1.156   1.180   1.194   1.202   1.211   1.242
  1.261   1.280   1.298   1.329   1.354   1.385   1.477   1.495
  1.533
 --------------------------------------------------------------
 
          Ground-State Mulliken Net Atomic Charges

     Atom                 Charge (a.u.)    Spin (a.u.)
  --------------------------------------------------------
      1 Fe                    1.305215       2.975916
      2 O                    -0.404342      -0.561383
      3 N                    -0.683023      -0.012284
      4 C                     0.303462       0.019143
      5 H                     0.205682       0.002110
      6 N                    -0.430007       0.006373
      7 H                     0.314292      -0.000011
      8 C                     0.112113      -0.000887
      9 H                     0.173564      -0.000179
     10 C                     0.095826       0.000846
     11 H                     0.146858       0.000048
     12 N                    -0.691047      -0.006955
     13 C                     0.311831       0.026622
     14 H                     0.232543       0.002479
     15 N                    -0.432477       0.002455
     16 H                     0.313450      -0.000092
     17 C                     0.126483       0.003699
     18 H                     0.178340      -0.000269
     19 C                     0.031984       0.000204
     20 H                     0.149315       0.000191
     21 N                    -0.736234       0.009998
     22 H                     0.331915       0.001996
     23 C                     0.000455      -0.019106
     24 H                     0.175317       0.000694
     25 C                     0.078439       0.034588
     26 H                     0.168070      -0.001467
     27 N                    -0.272351      -0.007718
     28 C                     0.164578       0.020600
     29 H                     0.213130      -0.000667
     30 H                     0.108077       0.000051
     31 H                     0.166748      -0.002754
     32 H                     0.107770      -0.005092
     33 O                    -0.475902      -0.053874
     34 H                     0.122982      -0.000571
     35 H                     0.080772       0.000124
     36 C                    -0.206846      -0.000232
     37 C                    -0.394944       0.007722
     38 H                     0.108679       0.011080
     39 C                    -0.180297      -0.075621
     40 H                     0.082213       0.009135
     41 H                     0.145676      -0.000378
     42 H                     0.129358       0.000058
     43 C                    -0.186249       0.006936
     44 C                     0.145562      -0.017109
     45 C                     0.073163      -0.008972
     46 C                    -0.125774      -0.001228
     47 H                     0.136771      -0.000202
     48 C                    -0.175700      -0.202289
     49 C                    -0.405675       0.002051
     50 H                     0.172152      -0.003504
     51 C                    -0.124131      -0.128089
     52 H                     0.144140      -0.002953
     53 C                     0.075718      -0.064539
     54 C                    -0.146942      -0.000574
     55 H                     0.132321      -0.000133
     56 H                     0.136238      -0.000309
     57 H                     0.169033       0.011464
     58 C                    -0.044648       0.053340
     59 C                    -0.034958      -0.023926
     60 H                     0.134233       0.001942
     61 C                    -0.225152      -0.002234
     62 H                     0.128711       0.000034
     63 H                     0.111279      -0.000128
     64 H                     0.147192       0.000235
     65 H                     0.133949      -0.001009
     66 H                     0.133456       0.000099
     67 C                    -0.273916       0.000359
     68 H                     0.164134      -0.002373
     69 H                     0.158055      -0.000215
     70 H                     0.169370      -0.003266
  --------------------------------------------------------
  Sum of atomic charges =     2.000000
  Sum of spin   charges =     2.000000

 -----------------------------------------------------------------
                    Cartesian Multipole Moments
 -----------------------------------------------------------------
    Charge (ESU x 10^10)
                 9.6064
    Dipole Moment (Debye)
         X      -3.4472      Y       8.0062      Z      -0.6864
       Tot       8.7437
    Quadrupole Moments (Debye-Ang)
        XX     -92.3296     XY      13.2833     YY     -85.8261
        XZ      16.4170     YZ       4.8547     ZZ    -190.9947
    Octopole Moments (Debye-Ang^2)
       XXX     -75.3903    XXY     105.5440    XYY       5.7654
       YYY     271.9361    XXZ     -56.1825    XYZ     -70.9317
       YYZ     -81.6946    XZZ     -13.3791    YZZ      -6.4763
       ZZZ       3.7590
    Hexadecapole Moments (Debye-Ang^3)
      XXXX   -7399.2399   XXXY     583.4513   XXYY   -2287.6077
      XYYY     318.6109   YYYY   -6176.8289   XXXZ     372.0661
      XXYZ     174.8353   XYYZ     -57.6880   YYYZ    -114.4492
      XXZZ   -1805.5551   XYZZ      70.8094   YYZZ   -1737.0158
      XZZZ      66.4495   YZZZ      55.3948   ZZZZ   -2073.6423
 -----------------------------------------------------------------
 Calculating analytic gradient of the SCF energy
 Gradient of SCF Energy
[...]
     49  C         2.1244607466   -3.2058763778   -0.7720215856
     50  H         0.1194041170   -1.6258017985    3.0306954143
     51  C         3.7168332612    1.9505245958    0.0926856107
     52  H        -0.0152224973   -4.0737396228    2.4356944144
     53  C         2.4728981472    0.0830183991    1.1032994566
     54  C         1.1098325146   -4.9557854718    0.7886306656
     55  H         2.0656535720   -5.3379463542   -1.1403133497
     56  H         0.6914541614   -5.9733067292    0.8475751267
     57  H         5.6266344160    4.5063711626   -1.2531161998
     58  C         4.8168290235    2.8539473338   -0.1555376206
     59  C         3.6756577320    0.9365271651    1.0042757914
     60  H         2.2185349758   -0.2644903185    2.1132492383
     61  C         3.6207444990   -3.3455747915   -0.4146403612
     62  H         2.0311128664   -4.9608436067    1.3988138522
     63  H         4.1439698101   -2.3750705647   -0.4755479990
     64  H         4.1198429535   -4.0354106364   -1.1169245145
     65  H         5.7256498286    2.7314866911    0.4415747771
     66  H         3.7568103986   -3.7342325555    0.6085647617
     67  C         4.7789741697    0.5574403513    1.9479815354
     68  H         4.4299103214    0.5918014455    2.9962236251
     69  H         5.6554134295    1.2127489383    1.8683406593
     70  H         5.1168486984   -0.4802290040    1.7684609303
   Point Group: c1    Number of degrees of freedom:   204


   Energy is  -2714.248249850

 Hessian Updated using BFGS Update

195 Hessian modes will be used to form the next step
  Hessian Eigenvalues:
     0.002109    0.002362    0.003154    0.003327    0.003945    0.005007
     0.005339    0.007002    0.007784    0.008537    0.008680    0.008971
     0.010094    0.010721    0.011111    0.011472    0.011657    0.012818
     0.014014    0.015341    0.015592    0.015984    0.016320    0.016868
     0.018590    0.018857    0.019313    0.019393    0.019492    0.020126
     0.020457    0.020518    0.020616    0.020816    0.021812    0.021945
     0.022373    0.022463    0.023079    0.023122    0.023838    0.024700
     0.026567    0.028663    0.028705    0.029843    0.030380    0.030677
     0.035735    0.036576    0.043590    0.043998    0.044566    0.047512
     0.047950    0.049717    0.049809    0.051952    0.052653    0.053260
     0.054006    0.054369    0.055351    0.056386    0.056538    0.059946
     0.061339    0.062083    0.067202    0.069425    0.070254    0.073429
     0.077349    0.078219    0.080881    0.084148    0.086038    0.088480
     0.090769    0.096872    0.097980    0.098765    0.101088    0.104052
     0.108208    0.117025    0.119422    0.123477    0.125978    0.129869
     0.136618    0.144521    0.151971    0.159692    0.159823    0.159833
     0.159914    0.159977    0.159982    0.159993    0.159995    0.159998
     0.160000    0.160000    0.160085    0.163302    0.171485    0.174081
     0.177415    0.183351    0.188537    0.191039    0.193159    0.211883
     0.213384    0.220011    0.220255    0.221727    0.224911    0.228928
     0.230954    0.231428    0.234153    0.241959    0.249526    0.250004
     0.269956    0.271915    0.277973    0.280321    0.281459    0.287779
     0.287897    0.294729    0.302615    0.303685    0.308231    0.315989
     0.322032    0.323003    0.325034    0.328280    0.329120    0.329162
     0.329540    0.330004    0.330368    0.330820    0.331489    0.331834
     0.332057    0.332399    0.332635    0.333267    0.333310    0.334161
     0.335714    0.337689    0.338689    0.339402    0.341510    0.342248
     0.342788    0.345307    0.345803    0.349442    0.352344    0.353696
     0.354804    0.355319    0.356185    0.356492    0.356585    0.364131
     0.383430    0.401554    0.408676    0.413339    0.426889    0.428773
     0.436837    0.444527    0.448898    0.449055    0.472352    0.474099
     0.491405    0.495738    0.514507    0.517330    0.531901    0.536681
     0.539116    0.544354    0.646452

 Minimum Search - Taking Simple RFO Step
 Searching for Lamda that Minimizes Along All modes
 Value Taken    Lamda =  -0.03199279
 Calculated Step too Large.  Step scaled by  0.479243
 Step Taken.  Stepsize is  0.300000

                             Maximum     Tolerance    Cnvgd?
         Gradient           0.017442      0.000300      NO
         Displacement       0.070839      0.001200      NO
         Energy change     -0.014047      0.000001      NO


 New Cartesian Coordinates Obtained by Inverse Iteration

 Displacement from previous Coordinates is:  0.705114
 ----------------------------------------------------------------
             Standard Nuclear Orientation (Angstroms)
    I     Atom           X                Y                Z
 ----------------------------------------------------------------
    1      Fe     -1.6382230716     1.0917723725    -0.4677008879
    2      O      -0.1875754735     0.4577619297    -1.2118634819
    3      N      -2.6402697667    -0.4777878667    -1.0569131746
    4      C      -2.2063301348    -1.7497699674    -1.0313136319
    5      H      -1.2462540156    -2.0846463089    -0.6569449711
    6      N      -3.1585083688    -2.5460162601    -1.5655032868
    7      H      -3.0939383936    -3.5528247993    -1.6609036883
    8      C      -4.2412433109    -1.7727221678    -1.9689363225
    9      H      -5.1164580595    -2.1940573995    -2.4462762671
   10      C      -3.9107922575    -0.4798021650    -1.6520414808
   11      H      -4.4739101576     0.4284854624    -1.8225933268
   12      N      -0.9159832911     2.9136723522    -0.4554496422
   13      C       0.3597243419     3.2460174321    -0.7240513966
   14      H       1.1720457276     2.5550589738    -0.9313921092
   15      N       0.4769622629     4.5927881077    -0.6793299364
   16      H       1.3351447556     5.1098227192    -0.8381708534
   17      C      -0.7547302399     5.1627664112    -0.3802906046
   18      H      -0.9004454304     6.2319385370    -0.3037413484
   19      C      -1.6221291306     4.1090486593    -0.2391865576
   20      H      -2.6857533381     4.1349153796    -0.0360424415
   21      N      -2.7121683823     1.4696887739     1.3208900800
   22      H      -2.2311612623     2.2687338116     1.7527597238
   23      C      -4.1050653863     1.6449024592     0.9737876580
   24      H      -4.4600849442     2.5430977257     0.4792525026
   25      C      -4.7595986823     0.5321744686     1.4124839293
   26      H      -5.8077374919     0.2769153463     1.3156454093
   27      N      -3.8709283997    -0.3303987034     2.0938155837
   28      C      -2.7009540613     0.2383409460     2.0856725606
   29      H      -1.7829612796    -0.1068757590     2.5677494536
   30      H       0.9643514735    -2.4967845868    -2.5047414857
   31      H      -1.2753236540    -1.8077295012     1.9758023489
   32      H      -0.8576710503    -4.1411732129     0.9024290844
   33      O       1.2831257280     0.4413009916     0.3233401712
   34      H      -0.0904312128    -0.5158916441     1.6618010281
   35      H       0.5066199022    -4.5390524984    -1.2489746924
   36      C       2.0131635211    -2.7319794056    -2.2523139857
   37      C      -0.1937773784    -1.5617702173     1.9836801484
   38      H       3.8934551305     3.9320488488    -1.7301324766
   39      C       0.5504870291    -2.5256589035     1.0997152604
   40      H       2.8182444488     2.0725776425    -0.4927371780
   41      H       2.3481733327    -3.5474974731    -2.9141548269
   42      H       2.6281780477    -1.8504075957    -2.4941873918
   43      C       0.1509784144    -3.9636697568     1.3377934373
   44      C       1.4861717389    -2.1715940036     0.1663437238
   45      C       2.0456514078    -0.8092177944    -0.0010635534
   46      C       1.4556369068    -4.5709511689    -0.6749324734
   47      H       2.6209034721    -0.6566064329    -0.9150146170
   48      C       4.7738387349     3.7946222805    -1.0911519039
   49      C       2.1442644173    -3.1905620958    -0.7805324807
   50      H       0.1279217836    -1.6538078777     3.0386239647
   51      C       3.7210733619     1.9264161495     0.1157912314
   52      H       0.0131273162    -4.1099622573     2.4242523911
   53      C       2.4869571934     0.0650772416     1.1439536567
   54      C       1.1444915127    -4.9657861853     0.7632690451
   55      H       2.0957555164    -5.3181274672    -1.1724414987
   56      H       0.7356068773    -5.9864011859     0.8130053836
   57      H       5.6184811345     4.4617937659    -1.2707190135
   58      C       4.8145863234     2.8256111206    -0.1369499281
   59      C       3.6824864591     0.9155312345     1.0440124868
   60      H       2.2418839511    -0.2942012605     2.1511141391
   61      C       3.6420821504    -3.3265072498    -0.4233855274
   62      H       2.0674427407    -4.9709513443     1.3696672248
   63      H       4.1632114726    -2.3535103481    -0.4728140358
   64      H       4.1427360126    -4.0043033757    -1.1345326138
   65      H       5.7216199563     2.7172868067     0.4632963348
   66      H       3.7818600187    -3.7284047064     0.5937892784
   67      C       4.7866625766     0.5507778812     1.9892510329
   68      H       4.4405600452     0.5919197218     3.0372919530
   69      H       5.6622613645     1.2054788432     1.9040256116
   70      H       5.1249957450    -0.4866094423     1.8168492413
 ----------------------------------------------------------------
 Molecular Point Group                 C1    NOp =  1
 Largest Abelian Subgroup              C1    NOp =  1
 Nuclear Repulsion Energy =  4431.1153679625 hartrees
 There are      135 alpha and      133 beta electrons
 Applying Cartesian multipole field
    Component          Value
    ---------          -----
     (2,0,0)        1.00000E-12
     (0,2,0)        2.00000E-12
     (0,0,2)       -3.00000E-11
 Nucleus-field energy     =    -0.0000000240 hartrees
 Requested basis set is VDZ
 There are 246 shells and 390 basis functions
 A cutoff of  1.0D-12 yielded  21241 shell pairs
 There are     54999 function pairs (     55633 Cartesian)
 Smallest overlap matrix eigenvalue = 7.57E-04
 Guess MOs from SCF MO coefficient file

 -----------------------------------------------------------------------
  General SCF calculation program by
  Eric Jon Sundstrom, Paul Horn, Yuezhi Mao, Dmitri Zuev, Alec White,
  David Stuck, Shaama M.S., Shane Yost, Joonho Lee, David Small,
  Daniel Levine, Susi Lehtola, Hugh Burton, Evgeny Epifanovsky
 -----------------------------------------------------------------------
 Exchange:  B97M-V      Correlation:  B97M-V
 Using SG-2 standard quadrature grid
 Nonlocal Correlation:  rVV10 with C = 0.0100 and b = 6.00 and scale = 1.00000
 Grid used for NLC:  SG-1 standard quadrature
 using 12 threads for integral computing
 -------------------------------------------------------
 OpenMP Integral computing Module                
 Release: version 1.0, May 2013, Q-Chem Inc. Pittsburgh 
 -------------------------------------------------------
 -------------------------------------------------------
 OpenMP BLAS3 based DFT computing Module                
 Release: version 1.0, May 2013, Q-Chem Inc. Pittsburgh 
 -------------------------------------------------------
 -------------------------------------------------------
 OpenMP BLAS3 based DFT computing Module                
 Release: version 1.0, May 2013, Q-Chem Inc. Pittsburgh 
 -------------------------------------------------------
 -------------------------------------------------------
 OpenMP BLAS3 based DFT computing Module                
 Release: version 1.0, May 2013, Q-Chem Inc. Pittsburgh 
 -------------------------------------------------------
 Nonlocal correlation = 0.982152857698
 A unrestricted SCF calculation will be
 performed using DIIS, GDM
 SCF converges when RMS gradient is below 1.0e-08
 ---------------------------------------
  Cycle       Energy         DIIS error
 ---------------------------------------
 Nonlocal correlation = 9.824223763181e-01
    1   -2714.2565304196      1.70e-04  
    2   -2714.2347046908      5.33e-04  Done DIIS. Switching to GDM
 ---------------------------------------
  Cycle       Energy        RMS Gradient
 ---------------------------------------
 Nonlocal correlation = 9.815840503789e-01
    1   -2714.2347046908      3.12e-01   Descent step
 Nonlocal correlation = 9.822600029381e-01
    2   -2713.8397025039      1.12e+00  Line search: overstep
 Nonlocal correlation = 9.812072318507e-01
    3   -2714.2545418130      1.77e-01   Normal BFGS step
 Nonlocal correlation = 9.820719669084e-01
    4   -2714.1254504734      3.27e-01  Line search: overstep
 Nonlocal correlation = 9.821601555973e-01
    5   -2714.2609112975      3.86e-02   Normal BFGS step
 Nonlocal correlation = 9.821708008871e-01
    6   -2714.2618528247      2.15e-02   Normal BFGS step
 Nonlocal correlation = 9.821020505547e-01
    7   -2714.2623328464      1.95e-02   Normal BFGS step
 Nonlocal correlation = 9.821066797136e-01
    8   -2714.2626700540      5.12e-03   Normal BFGS step
 Nonlocal correlation = 9.821469629287e-01
    9   -2714.2628805260      5.51e-03   Normal BFGS step
 Nonlocal correlation = 9.821184027324e-01
   10   -2714.2630115684      4.24e-03   Normal BFGS step
 Nonlocal correlation = 9.821067420108e-01
   11   -2714.2630811935      6.00e-03   Normal BFGS step
 Nonlocal correlation = 9.821097284260e-01
   12   -2714.2631324379      2.93e-03   Normal BFGS step
 Nonlocal correlation = 9.821139661570e-01
   13   -2714.2631402885      2.65e-03   Normal BFGS step
 Nonlocal correlation = 9.821108186651e-01
   14   -2714.2631506279      7.95e-04   Normal BFGS step
 Nonlocal correlation = 9.821121614110e-01
   15   -2714.2631522189      5.62e-04   Normal BFGS step
 Nonlocal correlation = 9.821109254183e-01
   16   -2714.2631538310      5.92e-04   Normal BFGS step
 Nonlocal correlation = 9.821113488705e-01
   17   -2714.2631543211      2.08e-04   Normal BFGS step
 Nonlocal correlation = 9.821126889627e-01
   18   -2714.2631546152      2.34e-04   Normal BFGS step
 Nonlocal correlation = 9.821113561871e-01
   19   -2714.2631547527      1.15e-04   Normal BFGS step
 Nonlocal correlation = 9.821108718439e-01
   20   -2714.2631548201      9.32e-05   Normal BFGS step
 Nonlocal correlation = 9.821122584841e-01
   21   -2714.2631548819      5.86e-05   Normal BFGS step
 Nonlocal correlation = 9.821115582787e-01
   22   -2714.2631549193      1.01e-04   Normal BFGS step
 Nonlocal correlation = 9.821118256521e-01
   23   -2714.2631549122      3.99e-04   Normal BFGS step
 Nonlocal correlation = 9.821108692571e-01
   24   -2714.2631549483      7.79e-05   Normal BFGS step
 Nonlocal correlation = 9.821113004983e-01
   25   -2714.2631549551      2.40e-04   Normal BFGS step
 Nonlocal correlation = 9.821122890587e-01
   26   -2714.2631549703      1.41e-04   Normal BFGS step
 Nonlocal correlation = 9.821113905275e-01
   27   -2714.2631550007      8.99e-05   Normal BFGS step
 Nonlocal correlation = 9.821107457609e-01
   28   -2714.2631550350      5.69e-05   Normal BFGS step
 Nonlocal correlation = 9.821104798747e-01
   29   -2714.2631550646      7.45e-05   Normal BFGS step
 Nonlocal correlation = 9.821116270728e-01
   30   -2714.2631550965      1.07e-04   Normal BFGS step
 Nonlocal correlation = 9.821114561914e-01
   31   -2714.2631551084      1.13e-04   Normal BFGS step
 Nonlocal correlation = 9.821100187333e-01
   32   -2714.2631551264      9.79e-05   Normal BFGS step
 Nonlocal correlation = 9.821105384328e-01
   33   -2714.2631551349      4.43e-05   Normal BFGS step
 Nonlocal correlation = 9.821111898431e-01
   34   -2714.2631551390      4.06e-05   Normal BFGS step
 Nonlocal correlation = 9.821107874033e-01
   35   -2714.2631551406      3.09e-05   Normal BFGS step
 Nonlocal correlation = 9.821104170834e-01
   36   -2714.2631551441      1.73e-05   Normal BFGS step
 Nonlocal correlation = 9.821107419132e-01
   37   -2714.2631551445      1.81e-05   Normal BFGS step
 Nonlocal correlation = 9.821108393386e-01
   38   -2714.2631551456      9.50e-06   Normal BFGS step
 Nonlocal correlation = 9.821107119460e-01
   39   -2714.2631551456      8.10e-06   Normal BFGS step
 Nonlocal correlation = 9.821106682822e-01
   40   -2714.2631551460      3.21e-06   Normal BFGS step
 Nonlocal correlation = 9.821107274316e-01
   41   -2714.2631551460      3.73e-06   Normal BFGS step
 Nonlocal correlation = 9.821107275092e-01
   42   -2714.2631551461      2.71e-06   Normal BFGS step
 Nonlocal correlation = 9.821107347810e-01
   43   -2714.2631551460      1.08e-05   Normal BFGS step
 Nonlocal correlation = 9.821106911539e-01
   44   -2714.2631551461      4.70e-06   Normal BFGS step
 Nonlocal correlation = 9.821107221176e-01
   45   -2714.2631551461      1.66e-06   Normal BFGS step
 Nonlocal correlation = 9.821107362107e-01
   46   -2714.2631551461      7.76e-07   Normal BFGS step
 Nonlocal correlation = 9.821107194497e-01
   47   -2714.2631551461      3.56e-06   Normal BFGS step
 Nonlocal correlation = 9.821107234322e-01
   48   -2714.2631551461      4.31e-07   Normal BFGS step
 Nonlocal correlation = 9.821107227200e-01
   49   -2714.2631551461      1.00e-06   Normal BFGS step
 Nonlocal correlation = 9.821107207091e-01
   50   -2714.2631551461      2.80e-07   Normal BFGS step
 Nonlocal correlation = 9.821107222666e-01
   51   -2714.2631551461      9.75e-07   Normal BFGS step
 Nonlocal correlation = 9.821107221991e-01
   52   -2714.2631551461      1.59e-07   Normal BFGS step
 Nonlocal correlation = 9.821107222928e-01
   53   -2714.2631551461      2.04e-07   Normal BFGS step
 Nonlocal correlation = 9.821107224248e-01
   54   -2714.2631551461      5.13e-08   Normal BFGS step
 Nonlocal correlation = 9.821107225453e-01
   55   -2714.2631551461      1.61e-07   Normal BFGS step
 Nonlocal correlation = 9.821107222366e-01
   56   -2714.2631551461      3.70e-08   Normal BFGS step
 Nonlocal correlation = 9.821107224623e-01
   57   -2714.2631551461      7.05e-08   Normal BFGS step
 Nonlocal correlation = 9.821107226202e-01
   58   -2714.2631551461      2.50e-08   Normal BFGS step
 Nonlocal correlation = 9.821107226649e-01
   59   -2714.2631551461      4.07e-08   Normal BFGS step
  /scratch/qcdevops/jenkins/workspace/build_qchem_linux_distrib/tags/qc511/qchem/libgscf/libgscf/opt/gdm.C::WARNING energy changes are now smaller than effective accuracy.
  /scratch/qcdevops/jenkins/workspace/build_qchem_linux_distrib/tags/qc511/qchem/libgscf/libgscf/opt/gdm.C::        calculation will continue, but THRESH should be increased
  /scratch/qcdevops/jenkins/workspace/build_qchem_linux_distrib/tags/qc511/qchem/libgscf/libgscf/opt/gdm.C::        or SCF_CONVERGENCE decreased. 
  /scratch/qcdevops/jenkins/workspace/build_qchem_linux_distrib/tags/qc511/qchem/libgscf/libgscf/opt/gdm.C::        effective_thresh = 8.19e-09
 Nonlocal correlation = 9.821107225665e-01
   60   -2714.2631551461      1.72e-08   Normal BFGS step
 Nonlocal correlation = 9.821107227094e-01
   61   -2714.2631551461      3.41e-08   Normal BFGS step
  /scratch/qcdevops/jenkins/workspace/build_qchem_linux_distrib/tags/qc511/qchem/libgscf/libgscf/opt/gdm.C::WARNING energy changes are now smaller than effective accuracy.
  /scratch/qcdevops/jenkins/workspace/build_qchem_linux_distrib/tags/qc511/qchem/libgscf/libgscf/opt/gdm.C::        calculation will continue, but THRESH should be increased
  /scratch/qcdevops/jenkins/workspace/build_qchem_linux_distrib/tags/qc511/qchem/libgscf/libgscf/opt/gdm.C::        or SCF_CONVERGENCE decreased. 
  /scratch/qcdevops/jenkins/workspace/build_qchem_linux_distrib/tags/qc511/qchem/libgscf/libgscf/opt/gdm.C::        effective_thresh = 8.19e-09
 Nonlocal correlation = 9.821107226209e-01
   62   -2714.2631551461      4.73e-08   Normal BFGS step
 Nonlocal correlation = 9.821107226884e-01
   63   -2714.2631551461      1.65e-07   Normal BFGS step
