
Running Job 1 of 1 zea_3_opt_631g_gga.in
qchem zea_3_opt_631g_gga.in_5877.0 /scr/c295_lal/137014/qchem5877/ 1
/usr/software/qchem_511/exe/qcprog.exe_s zea_3_opt_631g_gga.in_5877.0 /scr/c295_lal/137014/qchem5877/
Check license passed

                  Welcome to Q-Chem
     A Quantum Leap Into The Future Of Chemistry


 Q-Chem 5.1, Q-Chem, Inc., Pleasanton, CA (2018)

 Yihan Shao,  Zhengting Gan,  E. Epifanovsky,  A. T. B. Gilbert,  M. Wormit,  
 J. Kussmann,  A. W. Lange,  A. Behn,  Jia Deng,  Xintian Feng,  D. Ghosh,  
 M. Goldey,  P. R. Horn,  L. D. Jacobson,  I. Kaliman,  T. Kus,  A. Landau,  
 Jie Liu,  E. I. Proynov,  R. M. Richard,  R. P. Steele,  E. J. Sundstrom,  
 H. L. Woodcock III,  P. M. Zimmerman,  D. Zuev,  B. Albrecht,  E. Alguire,  
 S. A. Baeppler,  D. Barton,  Z. Benda,  Y. A. Bernard,  E. J. Berquist,  
 K. B. Bravaya,  H. Burton,  D. Casanova,  Chun-Min Chang,  Yunqing Chen,  
 A. Chien,  K. D. Closser,  M. P. Coons,  S. Coriani,  S. Dasgupta,  
 A. L. Dempwolff,  M. Diedenhofen,  Hainam Do,  R. G. Edgar,  Po-Tung Fang,  
 S. Faraji,  S. Fatehi,  Qingguo Feng,  K. D. Fenk,  J. Fosso-Tande,  
 Qinghui Ge,  A. Ghysels,  G. Gidofalvi,  J. Gomes,  J. Gonthier,  A. Gunina,  
 D. Hait,  M. W. D. Hanson-Heine,  P. H. P. Harbach,  A. W. Hauser,  
 J. E. Herr,  E. G. Hohenstein,  Z. C. Holden,  Kerwin Hui,  B. C. Huynh,  
 T.-C. Jagau,  Hyunjun Ji,  B. Kaduk,  K. Khistyaev,  Jaehoon Kim,  
 P. Klunzinger,  K. Koh,  D. Kosenkov,  L. Koulias,  T. Kowalczyk,  
 C. M. Krauter,  A. Kunitsa,  Ka Un Lao,  A. Laurent,  K. V. Lawler,  
 Joonho Lee,  D. Lefrancois,  S. Lehtola,  D. S. Levine,  Yi-Pei Li,  
 You-Sheng Lin,  Fenglai Liu,  E. Livshits,  A. Luenser,  P. Manohar,  
 E. Mansoor,  S. F. Manzer,  Shan-Ping Mao,  Yuezhi Mao,  N. Mardirossian,  
 A. V. Marenich,  T. Markovich,  L. A. Martinez-Martinez,  S. A. Maurer,  
 N. J. Mayhall,  S. C. McKenzie,  J.-M. Mewes,  A. F. Morrison,  
 J. W. Mullinax,  K. Nanda,  T. S. Nguyen-Beck,  R. Olivares-Amaya,  
 J. A. Parkhill,  T. M. Perrine,  F. Plasser,  P. Pokhilko,  S. Prager,  
 A. Prociuk,  E. Ramos,  D. R. Rehn,  F. Rob,  M. Schneider,  N. Sergueev,  
 S. M. Sharada,  S. Sharma,  D. W. Small,  T. Stauch,  T. Stein,  
 Yu-Chuan Su,  A. J. W. Thom,  A. Tkatchenko,  T. Tsuchimochi,  N. M. Tubman,  
 L. Vogt,  M. L. Vidal,  O. Vydrov,  M. A. Watson,  J. Wenzel,  
 M. de Wergifosse,  T. A. Wesolowski,  A. White,  J. Witte,  A. Yamada,  
 Jun Yang,  K. Yao,  S. Yeganeh,  S. R. Yost,  Zhi-Qiang You,  A. Zech,  
 Igor Ying Zhang,  Xing Zhang,  Yan Zhao,  Ying Zhu,  B. R. Brooks,  
 G. K. L. Chan,  C. J. Cramer,  M. S. Gordon,  W. J. Hehre,  A. Klamt,  
 M. W. Schmidt,  C. D. Sherrill,  D. G. Truhlar,  A. Aspuru-Guzik,  R. Baer,  
 A. T. Bell,  N. A. Besley,  Jeng-Da Chai,  A. E. DePrince, III,  
 R. A. DiStasio Jr.,  A. Dreuw,  B. D. Dunietz,  T. R. Furlani,  
 Chao-Ping Hsu,  Yousung Jung,  Jing Kong,  D. S. Lambrecht,  WanZhen Liang,  
 C. Ochsenfeld,  V. A. Rassolov,  L. V. Slipchenko,  J. E. Subotnik,  
 T. Van Voorhis,  J. M. Herbert,  A. I. Krylov,  P. M. W. Gill,  M. Head-Gordon

 Contributors to earlier versions of Q-Chem not listed above: 
 R. D. Adamson,  B. Austin,  J. Baker,  G. J. O. Beran,  K. Brandhorst,  
 S. T. Brown,  E. F. C. Byrd,  A. K. Chakraborty,  C.-L. Cheng,  
 Siu Hung Chien,  D. M. Chipman,  D. L. Crittenden,  H. Dachsel,  
 R. J. Doerksen,  A. D. Dutoi,  L. Fusti-Molnar,  W. A. Goddard III,  
 A. Golubeva-Zadorozhnaya,  S. R. Gwaltney,  G. Hawkins,  A. Heyden,  
 S. Hirata,  G. Kedziora,  F. J. Keil,  C. Kelley,  Jihan Kim,  R. A. King,  
 R. Z. Khaliullin,  P. P. Korambath,  W. Kurlancheek,  A. M. Lee,  M. S. Lee,  
 S. V. Levchenko,  Ching Yeh Lin,  D. Liotard,  R. C. Lochan,  I. Lotan,  
 P. E. Maslen,  N. Nair,  D. P. O'Neill,  D. Neuhauser,  E. Neuscamman,  
 C. M. Oana,  R. Olson,  B. Peters,  R. Peverati,  P. A. Pieniazek,  
 Y. M. Rhee,  J. Ritchie,  M. A. Rohrdanz,  E. Rosta,  N. J. Russ,  
 H. F. Schaefer III,  N. E. Schultz,  N. Shenvi,  A. C. Simmonett,  A. Sodt,  
 D. Stuck,  K. S. Thanthiriwatte,  V. Vanovschi,  Tao Wang,  A. Warshel,  
 C. F. Williams,  Q. Wu,  X. Xu,  W. Zhang

 Please cite Q-Chem as follows:
 Y. Shao et al., Mol. Phys. 113, 184-215 (2015)
 DOI: 10.1080/00268976.2014.952696

 Q-Chem 5.1.1 for Intel X86 EM64T Linux

 Parts of Q-Chem use Armadillo 8.300.2 (Tropical Shenanigans).
 http://arma.sourceforge.net/

 Q-Chem begins on Tue Oct 30 21:30:36 2018  

Host: cub-0-12.local
0

     Scratch files written to /scr/c295_lal/137014/qchem5877//
 Aug318 |scratch|qcdevops|jenkins|workspace|build_RNUM -1
Processing $rem in /usr/software/qchem_511/config/preferences.
 MEM_TOTAL  2000 
Input Ideriv = 2
Curr. Ideriv = -1
Max.  Ideriv = 2

Checking the input file for inconsistencies... 	...done.

--------------------------------------------------------------
User input:
--------------------------------------------------------------
$molecule
0 1
C         -1.04223        3.94349       -1.23157
C         -1.41827        2.86999       -0.51157
C         -0.41669        2.11989        0.29359
C         -0.65664        1.02456        1.05934
C          0.50893        0.42797        1.78754
C          0.42817       -0.67297        2.56458
H         -2.45184        2.56500       -0.53005
H          0.60295        2.49800        0.25341
H          1.47337        0.89703        1.63537
C          1.58838       -1.33176        3.27175
H         -0.52492       -1.17745        2.60914
C          2.66070       -0.63750        3.80037
C          3.83818       -1.35449        4.43604
C          3.45813       -2.68907        5.07205
H          4.35639       -0.71538        5.18415
H          4.57856       -1.54054        3.62711
C          2.78836       -3.52266        3.98380
O          2.61379       -2.50866        6.17677
H          4.38308       -3.21929        5.39874
C          1.48311       -2.87689        3.42426
H          2.59824       -4.56385        4.32620
H          3.54010       -3.60119        3.16437
C          2.76067        0.87343        3.89318
H          1.84480        1.42972        3.63997
H          3.61560        1.23552        3.28464
H          2.94040        1.15343        4.95271
C          0.29543       -3.21779        4.36317
H          0.39577       -2.73927        5.35561
H          0.21841       -4.31650        4.51189
H         -0.67702       -2.88919        3.94697
C          1.21356       -3.53932        2.05191
H          2.03370       -3.30662        1.33873
H          0.26178       -3.18605        1.60290
H          1.14202       -4.64406        2.15551
C         -1.97660        4.75717       -2.07141
C         -1.45018        5.81155       -2.74446
C         -2.19109        6.74661       -3.63265
C         -1.54995        7.75415       -4.24457
H         -3.25283        6.64000       -3.80745
H         -0.38468        6.00419       -2.63504
H          0.00474        4.23831       -1.20312
C         -2.28091        8.69279       -5.13567
C         -1.70534        9.73138       -5.78828
C         -2.59625       10.57689       -6.64881
C         -2.20833       11.64528       -7.36971
H         -1.18115       11.97042       -7.36847
H         -3.64783       10.30053       -6.69318
C         -3.19788       12.39977       -8.18607
C         -2.90358       13.48711       -8.94386
H         -4.22442       12.04007       -8.16188
C         -4.04064       14.12018       -9.70409
H         -0.48377        7.87619       -4.08084
H         -3.34780        8.52043       -5.26214
C         -3.94004       15.20218      -10.51040
H         -4.97692       13.63112       -9.55946
C         -5.01133       15.92288      -11.32480
H         -2.96108       15.61016      -10.59262
C         -6.36233       15.60147      -11.36098
C         -7.32305       16.48994      -12.15280
C         -7.05337       17.93198      -11.73955
H         -8.38757       16.24221      -11.95489
H         -7.20729       16.38384      -13.24141
C         -4.56791       17.14458      -12.19552
C         -7.01445       14.47958      -10.59125
H         -8.11050       14.43427      -10.75644
H         -6.87643       14.63549       -9.50125
H         -6.61788       13.50305      -10.93820
C         -4.45162       16.65510      -13.66811
H         -5.36018       16.21484      -14.10020
H         -3.67297       15.86458      -13.74070
H         -4.14748       17.48850      -14.33820
C         -3.16933       17.73351      -11.86377
H         -3.12649       18.06132      -10.80263
H         -2.95920       18.62005      -12.50189
H         -2.34433       17.01653      -12.05987
C         -5.58981       18.33522      -12.06641
O         -7.33762       18.08792      -10.36527
H         -7.73093       18.63303      -12.27323
H         -5.29062       19.06460      -11.28014
H         -5.55091       18.91574      -13.01467
C         -1.47386       14.00249       -8.98797
H         -1.30550       14.88776       -9.62040
H         -0.80497       13.20608       -9.37747
H         -1.14981       14.28307       -7.96344
C         -0.21933        9.99657       -5.63145
H          0.15459       10.86247       -6.20139
H          0.35540        9.11148       -5.97729
H          0.01365       10.18987       -4.56296
C         -3.44318        4.37357       -2.13258
H         -4.07085        5.01698       -2.76986
H         -3.87559        4.41280       -1.11082
H         -3.53616        3.34027       -2.52771
C         -2.02849        0.39284        1.20774
H         -2.83887        0.88837        0.64978
H         -2.32246        0.40336        2.27828
H         -1.99061       -0.65746        0.85011
H         -6.58442       17.72191       -9.83223
H          3.17773       -2.15562        6.91359
$end

$rem
BASIS = 6-31G
METHOD  = BLYP
JOBTYPE = OPT
$end
--------------------------------------------------------------
 ----------------------------------------------------------------
             Standard Nuclear Orientation (Angstroms)
    I     Atom           X                Y                Z
 ----------------------------------------------------------------
    1      C       4.3221321761     0.4698665125    -0.0128360000
    2      C       5.4566560967     1.1934264038    -0.0518858242
    3      C       6.7798416573     0.5128851522    -0.0401083290
    4      C       7.9957629441     1.1163363809    -0.0729551333
    5      C       9.2027494699     0.2289302916    -0.0519253394
    6      C      10.4732578623     0.6851954271    -0.0554993889
    7      H       5.3891797143     2.2684132840    -0.0903240930
    8      H       6.7533467335    -0.5742875303    -0.0000969358
    9      H       9.0251356392    -0.8376575656     0.0125818396
   10      C      11.7120749951    -0.1752278238     0.0165065699
   11      H      10.6144151015     1.7543370545    -0.0121747257
   12      C      11.8133906579    -1.4266305059    -0.5623135213
   13      C      13.0563725625    -2.2823093278    -0.3967239743
   14      C      14.3321770849    -1.4628344999    -0.2211269185
   15      H      13.1814605807    -2.9970217939    -1.2394640569
   16      H      12.9018502360    -2.9046758381     0.5120816535
   17      C      14.1018662140    -0.5355827385     0.9683743539
   18      O      14.6434641674    -0.7432250825    -1.3835066847
   19      H      15.1784428811    -2.1453534050     0.0266517195
   20      C      12.9234014672     0.4641875038     0.7551566945
   21      H      15.0321748704     0.0052065279     1.2503898922
   22      H      13.8642238573    -1.2062228924     1.8265779472
   23      C      10.7761117965    -2.0508203151    -1.4766202574
   24      H       9.9579422089    -1.3864666369    -1.7954061437
   25      H      10.3686983670    -2.9741176579    -1.0141575899
   26      H      11.2657640063    -2.3248134422    -2.4349913617
   27      C      13.4262862071     1.6893247053    -0.0538515603
   28      H      13.7058444429     1.4205248986    -1.0899888661
   29      H      14.3116872829     2.1457424453     0.4390593490
   30      H      12.6619045616     2.4876698969    -0.1261361196
   31      C      12.5016151453     0.9586287066     2.1595923198
   32      H      12.1166936096     0.1140294903     2.7710595691
   33      H      11.7044971367     1.7291967904     2.1037125376
   34      H      13.3653802706     1.4123481692     2.6928369699
   35      C       2.9489091901     1.0654147346    -0.0187191009
   36      C       1.8984117971     0.2074053382     0.0271786806
   37      C       0.4583987491     0.5795581372     0.0327485739
   38      C      -0.4885694880    -0.3698849647     0.0822702046
   39      H       0.1403327821     1.6124524485    -0.0015434363
   40      H       2.1136483612    -0.8587209982     0.0648749970
   41      H       4.4069202844    -0.6141723926     0.0264710569
   42      C      -1.9303003746    -0.0082849079     0.0902846146
   43      C      -2.9431358998    -0.9069273923     0.1398397277
   44      C      -4.3407632929    -0.3630947992     0.1416971199
   45      C      -5.4687979140    -1.0959812018     0.1869888732
   46      H      -5.4285726909    -2.1719294632     0.2261498196
   47      H      -4.4502539725     0.7188992383     0.1034252403
   48      C      -6.7988066385    -0.4281660575     0.1842071341
   49      C      -7.9890703298    -1.0797674337     0.2272703604
   50      H      -6.7976459870     0.6591242648     0.1448113759
   51      C      -9.2349381110    -0.2316277836     0.2170074660
   52      H      -0.1875156593    -1.4122706015     0.1174816110
   53      H      -2.1714015580     1.0521508477     0.0541857204
   54      C     -10.5038766850    -0.6996227594     0.2589094246
   55      H      -9.0393966691     0.8156572597     0.1760765322
   56      C     -11.8299512926     0.0565751097     0.2559041200
   57      H     -10.5893854484    -1.7588797484     0.3061680025
   58      C     -11.9828419540     1.4347040561     0.1710546458
   59      C     -13.3893923039     2.0283581636     0.0786875224
   60      C     -14.1330709863     1.2671413556    -1.0124005654
   61      H     -13.3754157867     3.1107177888    -0.1703981057
   62      H     -13.9451327664     1.9648535610     1.0257086539
   63      C     -13.1482761914    -0.7809957028     0.3443354497
   64      C     -10.8574403617     2.4334201156     0.0596121593
   65      H     -11.2245008535     3.4768769663    -0.0248314960
   66      H     -10.2684464587     2.2417924235    -0.8611605913
   67      H     -10.2365679605     2.4069922043     0.9788901016
   68      C     -13.6542917302    -0.7078250373     1.8141074289
   69      H     -13.8402919065     0.3004589364     2.2075273980
   70      H     -12.8991482959    -1.1592281976     2.4941666774
   71      H     -14.5997294946    -1.2801979417     1.9349958053
   72      C     -13.0000681962    -2.2995936156     0.0531011914
   73      H     -12.5823341278    -2.4621751349    -0.9639426911
   74      H     -13.9910810711    -2.8027937544     0.0976884644
   75      H     -12.3624123944    -2.8193213002     0.7990360028
   76      C     -14.2322925780    -0.2425306391    -0.6624100299
   77      O     -13.4855744179     1.4689315418    -2.2508632330
   78      H     -15.1651594663     1.6595389873    -1.1396423294
   79      H     -14.2107212534    -0.7840704171    -1.6350351890
   80      H     -15.2327640074    -0.4758637161    -0.2354131890
   81      C      -8.0077541267    -2.5990766073     0.2821526511
   82      H      -9.0057605887    -3.0627558769     0.3137818169
   83      H      -7.4721623874    -2.9433910093     1.1920878419
   84      H      -7.5004989787    -3.0081748580    -0.6171393459
   85      C      -2.6377872050    -2.3926212101     0.1910565170
   86      H      -3.5269889428    -3.0424455089     0.2295172784
   87      H      -2.0354009764    -2.6179654586     1.0964045097
   88      H      -2.0637484021    -2.6861360765    -0.7131801370
   89      C       2.7952896531     2.5737668031    -0.0736981919
   90      H       1.7562247997     2.9403920520    -0.0751168412
   91      H       3.2731972177     2.9577240771    -0.9992748068
   92      H       3.2949947457     3.0260301094     0.8084778731
   93      C       8.1804280054     2.6215196213    -0.1311562401
   94      H       7.2497106048     3.2105488704    -0.1510245786
   95      H       8.7473356654     2.8855591427    -1.0484804789
   96      H       8.7514678052     2.9569361828     0.7598395391
   97      H     -12.6818645272     0.8881990578    -2.2978248679
   98      H      14.9864624378    -1.4003506076    -2.0438910487
 ----------------------------------------------------------------
 Molecular Point Group                 C1    NOp =  1
 Largest Abelian Subgroup              C1    NOp =  1
 Nuclear Repulsion Energy =  3936.8590696424 hartrees
 There are      156 alpha and      156 beta electrons
 Requested basis set is 6-31G
 There are 238 shells and 490 basis functions

 Total QAlloc Memory Limit   2000 MB
 Mega-Array Size       188 MB
 MEM_STATIC part       192 MB
 A cutoff of  1.0D-11 yielded   8546 shell pairs
 There are     39686 function pairs
 
 -------------------------------------------------------
 OpenMP Integral Computing Module                       
 Release: version 1.0, May 2013, Q-Chem Inc. Pittsburgh 
 -------------------------------------------------------
 Integral Job Info:
 Integral job number is                      11
 Integral operator is                         1
 short-range coefficients                     0
 long-range coefficients              100000000
 Omega coefficients                           0
 if combine SR and LR in K                    0
 Integral screening is                        0
 Integral computing path is                   2
 max size of driver memory is            800000
 size of driver memory is                 45569
 size of scratch memory is              2040132
 max col of scratch BK array                289
 max len of scratch array in speh3           22
 max len of scratch index in speh4            8
 max int batch size is                      520
 min int batch size is                       52
 fixed nKL is                                52
 max L of basis functions is                  1
 order of int derivative is                   0
 number of shells is                        238
 number of basis is                         490
 number of cartesian basis is               490
 number of contracted shell pairs          8546
 number of primitive shell pairs          31329
 maxK2 (contraction) of shell pair           36
 max number of K2 of shell pair               1
 max number of CS2 of shell pair           1514
 max number of PS2 of shell pair           5916
 mem total for path MDJ                  644954
 -------------------------------------------------------
 Smallest overlap matrix eigenvalue = 1.47E-03

 Scale SEOQF with 1.000000e-02/1.000000e-01/1.000000e-01

 Standard Electronic Orientation quadrupole field applied
 Nucleus-field energy     =     0.0000001439 hartrees
 Guess from superposition of atomic densities
 Warning:  Energy on first SCF cycle will be non-variational
 SAD guess density has 312.000001 electrons

 -----------------------------------------------------------------------
  General SCF calculation program by
  Eric Jon Sundstrom, Paul Horn, Yuezhi Mao, Dmitri Zuev, Alec White,
  David Stuck, Shaama M.S., Shane Yost, Joonho Lee, David Small,
  Daniel Levine, Susi Lehtola, Hugh Burton, Evgeny Epifanovsky
 -----------------------------------------------------------------------
 Exchange:  B88      Correlation:  LYP
 Using SG-1 standard quadrature grid
 using 4 threads for integral computing
 -------------------------------------------------------
 OpenMP Integral computing Module                
 Release: version 1.0, May 2013, Q-Chem Inc. Pittsburgh 
 -------------------------------------------------------
 -------------------------------------------------------
 OpenMP BLAS3 based DFT computing Module                
 Release: version 1.0, May 2013, Q-Chem Inc. Pittsburgh 
 -------------------------------------------------------
 A restricted SCF calculation will be
 performed using DIIS
 SCF converges when DIIS error is below 1.0e-08
 ---------------------------------------
  Cycle       Energy         DIIS error
 ---------------------------------------
    1   -1713.0724818788      4.13e-02  
    2   -1705.7893197190      5.93e-03  
    3   -1704.9016836442      7.89e-03  
    4   -1706.9310587579      1.22e-03  
    5   -1706.9640440138      5.54e-04  
    6   -1706.9708446811      3.15e-04  
    7   -1706.9744347032      6.80e-05  
    8   -1706.9745554563      3.45e-05  
    9   -1706.9745922100      1.54e-05  
   10   -1706.9746011621      2.98e-06  
   11   -1706.9746014136      1.63e-06  
   12   -1706.9746015018      4.79e-07  
   13   -1706.9746015085      2.12e-07  
   14   -1706.9746015101      8.65e-08  
   15   -1706.9746015104      1.79e-08  
   16   -1706.9746015104      1.15e-08  
   17   -1706.9746015104      2.62e-09  Convergence criterion met
 ---------------------------------------
 SCF time:   CPU 497.65s  wall 124.00s 
 SCF   energy in the final basis set =    -1706.9746015104
 Total energy in the final basis set =    -1706.9746015104
 
 --------------------------------------------------------------
 
                    Orbital Energies (a.u.)
 --------------------------------------------------------------
 
 Alpha MOs
 -- Occupied --
-18.787 -18.772  -9.965  -9.960  -9.938  -9.928  -9.927  -9.927
 -9.927  -9.926  -9.925  -9.925  -9.920  -9.917  -9.917  -9.916
 -9.916  -9.916  -9.916  -9.915  -9.915  -9.915  -9.914  -9.914
 -9.914  -9.914  -9.914  -9.914  -9.913  -9.913  -9.912  -9.912
 -9.912  -9.910  -9.910  -9.910  -9.909  -9.909  -9.906  -9.905
 -9.899  -9.889  -0.937  -0.920  -0.756  -0.753  -0.745  -0.740
 -0.731  -0.725  -0.703  -0.700  -0.697  -0.688  -0.681  -0.668
 -0.660  -0.645  -0.641  -0.621  -0.614  -0.611  -0.610  -0.604
 -0.602  -0.600  -0.596  -0.594  -0.590  -0.553  -0.540  -0.530
 -0.518  -0.506  -0.498  -0.492  -0.484  -0.482  -0.474  -0.470
 -0.465  -0.460  -0.448  -0.442  -0.432  -0.426  -0.416  -0.415
 -0.412  -0.409  -0.404  -0.399  -0.393  -0.391  -0.389  -0.383
 -0.376  -0.371  -0.368  -0.367  -0.366  -0.365  -0.364  -0.363
 -0.363  -0.361  -0.358  -0.355  -0.351  -0.348  -0.345  -0.341
 -0.340  -0.337  -0.334  -0.333  -0.329  -0.328  -0.324  -0.323
 -0.322  -0.322  -0.315  -0.312  -0.309  -0.307  -0.305  -0.300
 -0.299  -0.298  -0.296  -0.294  -0.290  -0.288  -0.285  -0.282
 -0.281  -0.277  -0.277  -0.273  -0.272  -0.269  -0.258  -0.255
 -0.254  -0.244  -0.238  -0.237  -0.227  -0.209  -0.206  -0.196
 -0.191  -0.174  -0.156  -0.140
 -- Virtual --
 -0.080  -0.057  -0.034  -0.010   0.010   0.027   0.032   0.046
  0.051   0.060   0.063   0.065   0.070   0.072   0.076   0.078
  0.081   0.082   0.083   0.086   0.087   0.090   0.092   0.092
  0.095   0.099   0.101   0.107   0.108   0.112   0.113   0.114
  0.121   0.122   0.123   0.127   0.132   0.133   0.134   0.137
  0.137   0.141   0.143   0.147   0.150   0.153   0.153   0.157
  0.158   0.159   0.160   0.162   0.162   0.165   0.168   0.171
  0.172   0.177   0.183   0.186   0.187   0.187   0.188   0.190
  0.194   0.195   0.197   0.197   0.202   0.205   0.205   0.209
  0.213   0.215   0.218   0.222   0.226   0.227   0.231   0.233
  0.235   0.237   0.252   0.255   0.256   0.259   0.261   0.268
  0.274   0.281   0.286   0.314   0.320   0.333   0.341   0.347
  0.356   0.361   0.368   0.371   0.380   0.385   0.397   0.400
  0.414   0.416   0.422   0.431   0.455   0.459   0.478   0.482
  0.486   0.489   0.492   0.493   0.497   0.498   0.503   0.505
  0.510   0.514   0.516   0.519   0.525   0.529   0.530   0.531
  0.533   0.534   0.536   0.537   0.541   0.547   0.550   0.555
  0.557   0.559   0.560   0.564   0.565   0.571   0.573   0.579
  0.580   0.583   0.591   0.598   0.599   0.604   0.606   0.610
  0.611   0.617   0.618   0.622   0.624   0.626   0.633   0.633
  0.638   0.641   0.646   0.649   0.654   0.659   0.662   0.667
  0.671   0.678   0.682   0.683   0.685   0.690   0.695   0.697
  0.698   0.703   0.704   0.710   0.712   0.715   0.715   0.726
  0.729   0.730   0.735   0.737   0.741   0.745   0.751   0.752
  0.753   0.757   0.771   0.775   0.780   0.783   0.785   0.787
  0.791   0.791   0.798   0.802   0.810   0.815   0.820   0.825
  0.826   0.828   0.839   0.843   0.844   0.846   0.853   0.857
  0.858   0.862   0.867   0.868   0.872   0.876   0.877   0.878
  0.884   0.886   0.888   0.890   0.890   0.894   0.895   0.900
  0.900   0.909   0.910   0.913   0.913   0.916   0.917   0.918
  0.919   0.928   0.929   0.933   0.938   0.942   0.942   0.943
  0.949   0.949   0.956   0.958   0.961   0.961   0.967   0.968
  0.976   0.981   0.985   0.988   0.994   1.002   1.006   1.029
  1.042   1.042   1.048   1.052   1.064   1.066   1.074   1.077
  1.083   1.085   1.092   1.098   1.109   1.122   1.123   1.129
  1.143   1.146   1.157   1.161   1.168   1.179   1.181   1.186
  1.196   1.204   1.208   1.217   1.227   1.236   1.240   1.246
  1.258   1.264   1.277   1.279   1.288   1.293   1.294   1.305
  1.336   1.338   1.352   1.362   1.405   1.418   1.421   1.431
  1.434   1.449   1.469   1.484   1.506   1.520   1.537   1.539
  1.548   1.557   1.560   1.591   1.612   1.629   1.638   1.643
  1.682   1.697   1.876   1.892   1.943   2.029
 --------------------------------------------------------------
 
          Ground-State Mulliken Net Atomic Charges

     Atom                 Charge (a.u.)
  ----------------------------------------
      1 C                    -0.135043
      2 C                    -0.076734
      3 C                    -0.167742
      4 C                     0.150032
      5 C                    -0.118777
      6 C                    -0.149932
      7 H                     0.095140
      8 H                     0.083647
      9 H                     0.100481
     10 C                     0.115183
     11 H                     0.097585
     12 C                     0.098954
     13 C                    -0.281798
     14 C                     0.094659
     15 H                     0.094051
     16 H                     0.121708
     17 C                    -0.206404
     18 O                    -0.541855
     19 H                     0.083598
     20 C                    -0.001158
     21 H                     0.107656
     22 H                     0.106499
     23 C                    -0.441887
     24 H                     0.141779
     25 H                     0.122925
     26 H                     0.119723
     27 C                    -0.366165
     28 H                     0.159068
     29 H                     0.104068
     30 H                     0.102746
     31 C                    -0.356260
     32 H                     0.111108
     33 H                     0.111417
     34 H                     0.108710
     35 C                     0.152997
     36 C                    -0.171653
     37 C                    -0.075786
     38 C                    -0.081126
     39 H                     0.094410
     40 H                     0.085846
     41 H                     0.087869
     42 C                    -0.165053
     43 C                     0.142766
     44 C                    -0.128685
     45 C                    -0.077489
     46 H                     0.095603
     47 H                     0.087709
     48 C                    -0.166389
     49 C                     0.143219
     50 H                     0.086262
     51 C                    -0.109159
     52 H                     0.094659
     53 H                     0.086743
     54 C                    -0.152366
     55 H                     0.088797
     56 C                     0.110861
     57 H                     0.084014
     58 C                     0.038335
     59 C                    -0.252027
     60 C                     0.098928
     61 H                     0.118811
     62 H                     0.118025
     63 C                    -0.006871
     64 C                    -0.436636
     65 H                     0.123126
     66 H                     0.141278
     67 H                     0.142052
     68 C                    -0.364162
     69 H                     0.125137
     70 H                     0.119543
     71 H                     0.109610
     72 C                    -0.370860
     73 H                     0.114786
     74 H                     0.116055
     75 H                     0.117455
     76 C                    -0.240444
     77 O                    -0.558787
     78 H                     0.114970
     79 H                     0.119314
     80 H                     0.107188
     81 C                    -0.456136
     82 H                     0.129936
     83 H                     0.141611
     84 H                     0.141570
     85 C                    -0.452861
     86 H                     0.126924
     87 H                     0.142625
     88 H                     0.142696
     89 C                    -0.451807
     90 H                     0.131381
     91 H                     0.139265
     92 H                     0.139228
     93 C                    -0.451593
     94 H                     0.129308
     95 H                     0.140164
     96 H                     0.138289
     97 H                     0.335439
     98 H                     0.338106
  ----------------------------------------
  Sum of atomic charges =    -0.000000

 -----------------------------------------------------------------
                    Cartesian Multipole Moments
 -----------------------------------------------------------------
    Charge (ESU x 10^10)
                -0.0000
    Dipole Moment (Debye)
         X       2.2384      Y      -2.6879      Z       1.1541
       Tot       3.6834
    Quadrupole Moments (Debye-Ang)
        XX    -246.4319     XY      -8.8053     YY    -242.2076
        XZ     -24.5163     YZ       6.9603     ZZ    -269.9846
    Octopole Moments (Debye-Ang^2)
       XXX     652.2555    XXY    -586.7288    XYY      71.6517
       YYY      -0.9410    XXZ     247.5889    XYZ     -14.1367
       YYZ      -0.2285    XZZ     112.0970    YZZ     -22.1729
       ZZZ     -16.0898
    Hexadecapole Moments (Debye-Ang^3)
      XXXX -154322.7776   XXXY   -3309.1098   XXYY  -26156.4368
      XYYY    -134.8229   YYYY   -3732.2702   XXXZ   -5533.7908
      XXYZ    1578.2543   XYYZ    -230.1037   YYYZ      11.2514
      XXZZ  -27821.9177   XYZZ       5.8838   YYZZ    -856.0502
      XZZZ    -301.1418   YZZZ      43.4232   ZZZZ   -1318.1708
 -----------------------------------------------------------------
 Calculating analytic gradient of the SCF energy
 Gradient of SCF Energy
            1           2           3           4           5           6
    1   0.0396809  -0.0410100   0.0350797  -0.0233879   0.0263243  -0.0288362
    2  -0.0102461   0.0162901  -0.0166811   0.0095327  -0.0183249   0.0164532
    3   0.0000136  -0.0002477   0.0000714   0.0005093  -0.0015662  -0.0031606
            7           8           9          10          11          12
    1  -0.0042519   0.0025506   0.0054266   0.0087387  -0.0052703   0.0062937
    2  -0.0095371   0.0055356   0.0047634   0.0015589  -0.0087783  -0.0170855
    3   0.0004039  -0.0001997  -0.0010357   0.0049701   0.0015376   0.0043204
           13          14          15          16          17          18
    1   0.0049841  -0.0001845   0.0029876  -0.0036408  -0.0037347  -0.0157270
    2   0.0137904   0.0247667  -0.0028009   0.0035896   0.0002707  -0.0180046
    3  -0.0024571  -0.0381233  -0.0010866   0.0021966  -0.0062970   0.0373692
           19          20          21          22          23          24
    1   0.0018577  -0.0007735   0.0050873  -0.0010671  -0.0005802   0.0002478
    2   0.0010898  -0.0047570  -0.0003013  -0.0038952   0.0003054   0.0008782
    3  -0.0020021  -0.0021820   0.0033523   0.0024896   0.0083276  -0.0075276
           25          26          27          28          29          30
    1   0.0029494  -0.0019328  -0.0042629  -0.0007624   0.0023417   0.0000872
    2  -0.0010174   0.0064749  -0.0127711   0.0014953   0.0023037   0.0019196
    3   0.0051211  -0.0033898   0.0109275  -0.0054494   0.0016521  -0.0024586
           31          32          33          34          35          36
    1   0.0061539  -0.0011694  -0.0029234   0.0028873  -0.0288855   0.0410763
    2  -0.0036823  -0.0041793   0.0035262   0.0025492   0.0060828  -0.0086962
    3  -0.0118744   0.0011433  -0.0006032   0.0018972   0.0001311  -0.0001963
           37          38          39          40          41          42
    1  -0.0513320   0.0509282  -0.0025861   0.0013954   0.0045249  -0.0424706
    2   0.0032239   0.0001956  -0.0094981   0.0057319   0.0057808   0.0041907
    3   0.0005857  -0.0007749   0.0004128  -0.0002646  -0.0002831   0.0005317
           43          44          45          46          47          48
    1   0.0409721  -0.0431282   0.0433003   0.0009612  -0.0044923  -0.0365585
    2  -0.0051363   0.0109275  -0.0157548   0.0095554  -0.0061053   0.0128675
    3  -0.0005161   0.0002428  -0.0001214  -0.0003453   0.0003276   0.0000409
           49          50          51          52          53          54
    1   0.0371493  -0.0020555  -0.0297986   0.0017191  -0.0011514   0.0368336
    2  -0.0098124  -0.0053935   0.0220370   0.0058918  -0.0055337  -0.0239192
    3  -0.0000440   0.0002274  -0.0005751  -0.0002479   0.0002611  -0.0010459
           55          56          57          58          59          60
    1  -0.0048941  -0.0209101   0.0070489   0.0027480  -0.0012987   0.0304039
    2  -0.0153431   0.0060713   0.0191699   0.0021490  -0.0079987   0.0097395
    3   0.0006607   0.0075100  -0.0007551  -0.0033276  -0.0058474  -0.0220373
           61          62          63          64          65          66
    1  -0.0041715   0.0018531  -0.0000477  -0.0021123   0.0019213  -0.0062816
    2   0.0059858   0.0016952   0.0039762  -0.0073567   0.0055905  -0.0007639
    3   0.0009744  -0.0050479  -0.0033477  -0.0021538  -0.0001932  -0.0066926
           67          68          69          70          71          72
    1  -0.0065018   0.0044417  -0.0000806   0.0030089  -0.0031297  -0.0057068
    2   0.0009902   0.0045721  -0.0037448  -0.0003928  -0.0010515   0.0082038
    3   0.0070868  -0.0151155   0.0033059   0.0033864   0.0007534   0.0056018
           73          74          75          76          77          78
    1   0.0007568  -0.0032708   0.0010152   0.0098532  -0.0142784  -0.0055347
    2   0.0022229  -0.0043266  -0.0026250   0.0022827  -0.0037321  -0.0016439
    3  -0.0045978   0.0015819   0.0040420   0.0006084   0.0393881   0.0012160
           79          80          81          82          83          84
    1  -0.0037455  -0.0030954   0.0013976   0.0014693   0.0004867   0.0002668
    2   0.0004534  -0.0022434   0.0059300  -0.0043914   0.0018130   0.0013988
    3  -0.0050138   0.0001029  -0.0002233   0.0000802   0.0051051  -0.0052094
           85          86          87          88          89          90
    1   0.0011720   0.0006500   0.0003437   0.0002219  -0.0058814  -0.0008657
    2   0.0062956  -0.0032249   0.0019450   0.0015703  -0.0041516   0.0050366
    3  -0.0002335   0.0001491   0.0050839  -0.0052727   0.0002847  -0.0002129
           91          92          93          94          95          96
    1  -0.0005509  -0.0004331  -0.0065608   0.0006639  -0.0011850  -0.0012146
    2  -0.0025273  -0.0021665  -0.0023569   0.0050373  -0.0023084  -0.0019030
    3  -0.0046045   0.0047444   0.0006046  -0.0001784  -0.0048388   0.0047461
           97          98
    1   0.0000937   0.0013692
    2  -0.0031710  -0.0063722
    3  -0.0009400   0.0038383
 Max gradient component =       5.133E-02
 RMS gradient           =       1.202E-02
 Gradient time:  CPU 57.90 s  wall 14.76 s
 Geometry Optimization Parameters
   NAtoms,    NIC,     NZ,  NCons,   NDum,   NFix, NCnnct, MaxDiis
       98     711       0       0       0       0       0       0


** GEOMETRY OPTIMIZATION IN DELOCALIZED INTERNAL COORDINATES **
   Searching for a Minimum

   Optimization Cycle:   1

                       Coordinates (Angstroms)
     ATOM                X               Y               Z
      1  C         4.3221321761    0.4698665125   -0.0128360000
      2  C         5.4566560967    1.1934264038   -0.0518858242
      3  C         6.7798416573    0.5128851522   -0.0401083290
      4  C         7.9957629441    1.1163363809   -0.0729551333
      5  C         9.2027494699    0.2289302916   -0.0519253394
      6  C        10.4732578623    0.6851954271   -0.0554993889
      7  H         5.3891797143    2.2684132840   -0.0903240930
      8  H         6.7533467335   -0.5742875303   -0.0000969358
      9  H         9.0251356392   -0.8376575656    0.0125818396
     10  C        11.7120749951   -0.1752278238    0.0165065699
     11  H        10.6144151015    1.7543370545   -0.0121747257
     12  C        11.8133906579   -1.4266305059   -0.5623135213
     13  C        13.0563725625   -2.2823093278   -0.3967239743
     14  C        14.3321770849   -1.4628344999   -0.2211269185
     15  H        13.1814605807   -2.9970217939   -1.2394640569
     16  H        12.9018502360   -2.9046758381    0.5120816535
     17  C        14.1018662140   -0.5355827385    0.9683743539
     18  O        14.6434641674   -0.7432250825   -1.3835066847
     19  H        15.1784428811   -2.1453534050    0.0266517195
     20  C        12.9234014672    0.4641875038    0.7551566945
     21  H        15.0321748704    0.0052065279    1.2503898922
     22  H        13.8642238573   -1.2062228924    1.8265779472
     23  C        10.7761117965   -2.0508203151   -1.4766202574
     24  H         9.9579422089   -1.3864666369   -1.7954061437
     25  H        10.3686983670   -2.9741176579   -1.0141575899
     26  H        11.2657640063   -2.3248134422   -2.4349913617
     27  C        13.4262862071    1.6893247053   -0.0538515603
     28  H        13.7058444429    1.4205248986   -1.0899888661
     29  H        14.3116872829    2.1457424453    0.4390593490
     30  H        12.6619045616    2.4876698969   -0.1261361196
     31  C        12.5016151453    0.9586287066    2.1595923198
     32  H        12.1166936096    0.1140294903    2.7710595691
     33  H        11.7044971367    1.7291967904    2.1037125376
     34  H        13.3653802706    1.4123481692    2.6928369699
     35  C         2.9489091901    1.0654147346   -0.0187191009
     36  C         1.8984117971    0.2074053382    0.0271786806
     37  C         0.4583987491    0.5795581372    0.0327485739
     38  C        -0.4885694880   -0.3698849647    0.0822702046
     39  H         0.1403327821    1.6124524485   -0.0015434363
     40  H         2.1136483612   -0.8587209982    0.0648749970
     41  H         4.4069202844   -0.6141723926    0.0264710569
     42  C        -1.9303003746   -0.0082849079    0.0902846146
     43  C        -2.9431358998   -0.9069273923    0.1398397277
     44  C        -4.3407632929   -0.3630947992    0.1416971199
     45  C        -5.4687979140   -1.0959812018    0.1869888732
     46  H        -5.4285726909   -2.1719294632    0.2261498196
     47  H        -4.4502539725    0.7188992383    0.1034252403
     48  C        -6.7988066385   -0.4281660575    0.1842071341
     49  C        -7.9890703298   -1.0797674337    0.2272703604
     50  H        -6.7976459870    0.6591242648    0.1448113759
     51  C        -9.2349381110   -0.2316277836    0.2170074660
     52  H        -0.1875156593   -1.4122706015    0.1174816110
     53  H        -2.1714015580    1.0521508477    0.0541857204
     54  C       -10.5038766850   -0.6996227594    0.2589094246
     55  H        -9.0393966691    0.8156572597    0.1760765322
     56  C       -11.8299512926    0.0565751097    0.2559041200
     57  H       -10.5893854484   -1.7588797484    0.3061680025
     58  C       -11.9828419540    1.4347040561    0.1710546458
     59  C       -13.3893923039    2.0283581636    0.0786875224
     60  C       -14.1330709863    1.2671413556   -1.0124005654
     61  H       -13.3754157867    3.1107177888   -0.1703981057
     62  H       -13.9451327664    1.9648535610    1.0257086539
     63  C       -13.1482761914   -0.7809957028    0.3443354497
     64  C       -10.8574403617    2.4334201156    0.0596121593
     65  H       -11.2245008535    3.4768769663   -0.0248314960
     66  H       -10.2684464587    2.2417924235   -0.8611605913
     67  H       -10.2365679605    2.4069922043    0.9788901016
     68  C       -13.6542917302   -0.7078250373    1.8141074289
     69  H       -13.8402919065    0.3004589364    2.2075273980
     70  H       -12.8991482959   -1.1592281976    2.4941666774
     71  H       -14.5997294946   -1.2801979417    1.9349958053
     72  C       -13.0000681962   -2.2995936156    0.0531011914
     73  H       -12.5823341278   -2.4621751349   -0.9639426911
     74  H       -13.9910810711   -2.8027937544    0.0976884644
     75  H       -12.3624123944   -2.8193213002    0.7990360028
     76  C       -14.2322925780   -0.2425306391   -0.6624100299
     77  O       -13.4855744179    1.4689315418   -2.2508632330
     78  H       -15.1651594663    1.6595389873   -1.1396423294
     79  H       -14.2107212534   -0.7840704171   -1.6350351890
     80  H       -15.2327640074   -0.4758637161   -0.2354131890
     81  C        -8.0077541267   -2.5990766073    0.2821526511
     82  H        -9.0057605887   -3.0627558769    0.3137818169
     83  H        -7.4721623874   -2.9433910093    1.1920878419
     84  H        -7.5004989787   -3.0081748580   -0.6171393459
     85  C        -2.6377872050   -2.3926212101    0.1910565170
     86  H        -3.5269889428   -3.0424455089    0.2295172784
     87  H        -2.0354009764   -2.6179654586    1.0964045097
     88  H        -2.0637484021   -2.6861360765   -0.7131801370
     89  C         2.7952896531    2.5737668031   -0.0736981919
     90  H         1.7562247997    2.9403920520   -0.0751168412
     91  H         3.2731972177    2.9577240771   -0.9992748068
     92  H         3.2949947457    3.0260301094    0.8084778731
     93  C         8.1804280054    2.6215196213   -0.1311562401
     94  H         7.2497106048    3.2105488704   -0.1510245786
     95  H         8.7473356654    2.8855591427   -1.0484804789
     96  H         8.7514678052    2.9569361828    0.7598395391
     97  H       -12.6818645272    0.8881990578   -2.2978248679
     98  H        14.9864624378   -1.4003506076   -2.0438910487
   Point Group: c1    Number of degrees of freedom:   288


   Energy is  -1706.974601510


 Attempting to Generate Delocalized Internal Coordinates

288 Hessian modes will be used to form the next step
  Hessian Eigenvalues:
     0.002000    0.002120    0.002315    0.002863    0.002893    0.003653
     0.005668    0.006478    0.006849    0.006853    0.006910    0.006920
     0.007551    0.007852    0.008019    0.008227    0.008385    0.009218
     0.009347    0.009410    0.009600    0.010074    0.010255    0.010732
     0.010768    0.010854    0.010977    0.011098    0.012640    0.013218
     0.013266    0.013605    0.013718    0.014057    0.014069    0.015369
     0.017124    0.018659    0.019076    0.019409    0.019469    0.019529
     0.019547    0.019580    0.019617    0.019829    0.019975    0.020130
     0.020343    0.020427    0.026595    0.027985    0.028011    0.028076
     0.028368    0.028606    0.029027    0.029065    0.029526    0.029554
     0.030095    0.033058    0.033166    0.043180    0.045360    0.046490
     0.048399    0.048597    0.048842    0.049440    0.052122    0.052221
     0.053540    0.053644    0.053950    0.054165    0.054940    0.054954
     0.055148    0.055212    0.055866    0.062443    0.064790    0.065385
     0.066130    0.066739    0.067341    0.067994    0.068153    0.068835
     0.069203    0.070815    0.072525    0.073302    0.073577    0.073741
     0.074211    0.074289    0.075149    0.083793    0.085502    0.087955
     0.088296    0.088719    0.095127    0.099462    0.099656    0.130524
     0.133555    0.142203    0.149586    0.159575    0.159910    0.159999
     0.159999    0.160000    0.160000    0.160000    0.160000    0.160000
     0.160000    0.160000    0.160000    0.160000    0.160000    0.160000
     0.160000    0.160000    0.160000    0.160000    0.160000    0.160000
     0.160000    0.160000    0.160000    0.160000    0.160000    0.160000
     0.160000    0.160000    0.160000    0.160000    0.160000    0.160000
     0.160000    0.160000    0.160000    0.160000    0.160000    0.160000
     0.160000    0.160000    0.160000    0.160000    0.160000    0.160000
     0.160000    0.163726    0.166022    0.177231    0.186727    0.216062
     0.220000    0.220000    0.220000    0.220000    0.220000    0.220000
     0.220000    0.220000    0.220000    0.220000    0.220000    0.220000
     0.220028    0.220144    0.222520    0.248762    0.249348    0.249803
     0.249983    0.250000    0.250000    0.250000    0.250000    0.250000
     0.250000    0.250000    0.250000    0.251300    0.257660    0.262563
     0.267983    0.268029    0.271340    0.273676    0.274915    0.278631
     0.285522    0.285555    0.288321    0.291958    0.297455    0.299164
     0.303266    0.305977    0.306003    0.306426    0.306500    0.313478
     0.314746    0.316342    0.320686    0.320986    0.322394    0.323341
     0.323460    0.323533    0.323608    0.323832    0.323919    0.324006
     0.324081    0.324112    0.324430    0.324445    0.324474    0.324521
     0.325219    0.325383    0.325385    0.325421    0.325426    0.325427
     0.325505    0.325618    0.325769    0.325804    0.325818    0.325827
     0.325888    0.325907    0.326307    0.326405    0.326685    0.327138
     0.328515    0.329907    0.334606    0.334784    0.335027    0.335622
     0.335810    0.336413    0.336714    0.336957    0.337432    0.338463
     0.338835    0.350111    0.350178    0.350223    0.350334    0.350378
     0.350443    0.353308    0.356107    0.358376    0.360803    0.362629
     0.363089    0.377184    0.380309    0.436873    0.452755    0.453994
     0.469993    0.489845    0.489996    0.533890    0.534289    0.535296
     0.539846    0.543593    0.550307    0.558415    0.558877    0.567856

 Minimum Search - Taking Simple RFO Step
 Searching for Lamda that Minimizes Along All modes
 Value Taken    Lamda =  -0.06130402
 Calculated Step too Large.  Step scaled by  0.683855
 Step Taken.  Stepsize is  0.300000

                             Maximum     Tolerance    Cnvgd?
         Gradient           0.047559      0.000300      NO
         Displacement       0.081297      0.001200      NO
         Energy change     *********      0.000001      NO


 New Cartesian Coordinates Obtained by Inverse Iteration

 Displacement from previous Coordinates is:  1.798502
 ----------------------------------------------------------------
             Standard Nuclear Orientation (Angstroms)
    I     Atom           X                Y                Z
 ----------------------------------------------------------------
    1      C       4.3216857437     0.4582262549     0.0076166978
    2      C       5.4869441670     1.1700281944    -0.0338020138
    3      C       6.7963231064     0.5027475436    -0.0324194285
    4      C       8.0336110385     1.0981394014    -0.0678145758
    5      C       9.2278302491     0.2169813013    -0.0610409064
    6      C      10.5185548411     0.6590274491    -0.0653353236
    7      H       5.4438680685     2.2543151269    -0.0683488844
    8      H       6.7567885585    -0.5891800382     0.0011111350
    9      H       9.0254823365    -0.8507515683    -0.0067832188
   10      C      11.7555453812    -0.1825187429    -0.0174208478
   11      H      10.6766112998     1.7329575588    -0.0031158705
   12      C      11.8877871526    -1.4068712586    -0.6430510462
   13      C      13.1474249593    -2.2549439182    -0.4816983047
   14      C      14.4137052655    -1.4115790529    -0.2446900472
   15      H      13.2946317981    -2.9278673000    -1.3511874258
   16      H      12.9960288405    -2.9241889107     0.3933547315
   17      C      14.1367472271    -0.5177888242     0.9707589960
   18      O      14.7485216719    -0.6143280227    -1.3926551078
   19      H      15.2642928024    -2.0898059778    -0.0012284031
   20      C      12.9384597051     0.4686942436     0.7687607865
   21      H      15.0433565469     0.0365522123     1.2835937978
   22      H      13.8955211558    -1.2118814490     1.8034306563
   23      C      10.8832909126    -2.0203743786    -1.6075659055
   24      H      10.0635181304    -1.3521919719    -1.9056204656
   25      H      10.4659041949    -2.9637946963    -1.2024193578
   26      H      11.4031951923    -2.2671876987    -2.5568337936
   27      C      13.4276995235     1.7393659002     0.0045818778
   28      H      13.7360552412     1.5031522699    -1.0268312455
   29      H      14.2898044545     2.1984455859     0.5278946883
   30      H      12.6413336523     2.5153549801    -0.0526294068
   31      C      12.4705375547     0.9064937773     2.1896203917
   32      H      12.0946361499     0.0391315479     2.7667124769
   33      H      11.6586911450     1.6558988887     2.1437863620
   34      H      13.3098499231     1.3595050193     2.7534378382
   35      C       2.9623058540     1.0446367769     0.0075785318
   36      C       1.8909046527     0.1850848533     0.0568725405
   37      C       0.4662064938     0.5383103252     0.0641878830
   38      C      -0.5137425628    -0.4123003163     0.1194670554
   39      H       0.1667187458     1.5840502655     0.0251552506
   40      H       2.0992059659    -0.8871700458     0.0958049280
   41      H       4.3802180674    -0.6324164745     0.0441366340
   42      C      -1.9404649021    -0.0661163317     0.1249432768
   43      C      -2.9859116158    -0.9572672224     0.1818706017
   44      C      -4.3586839162    -0.4053305941     0.1744077367
   45      C      -5.5220567345    -1.1184231275     0.2264224655
   46      H      -5.5021122421    -2.2023641928     0.2815983856
   47      H      -4.4308135992     0.6841282356     0.1210947280
   48      C      -6.8334368074    -0.4542129353     0.2089586045
   49      C      -8.0568005466    -1.0796300550     0.2581061795
   50      H      -6.8079051190     0.6366684924     0.1503641815
   51      C      -9.2676566795    -0.2182270250     0.2242451914
   52      H      -0.2268976236    -1.4631450710     0.1611717931
   53      H      -2.1682873494     1.0015061532     0.0790791434
   54      C     -10.5566980586    -0.6690030657     0.2695894098
   55      H      -9.0432863112     0.8356032814     0.1598842745
   56      C     -11.8505201871     0.0854729746     0.2385463391
   57      H     -10.6761640316    -1.7397492592     0.3429550684
   58      C     -11.9903420870     1.4582233866     0.1201862319
   59      C     -13.4019149328     2.0467084116     0.0004759211
   60      C     -14.1634185385     1.2514140740    -1.0780503851
   61      H     -13.3733876919     3.1158118363    -0.2795411573
   62      H     -13.9594366035     2.0093207132     0.9535173339
   63      C     -13.1676025972    -0.7547661610     0.3542776584
   64      C     -10.8407826726     2.4435375476    -0.0015587922
   65      H     -11.2070041160     3.4800938812    -0.1134764380
   66      H     -10.2265727833     2.2328076895    -0.8987316799
   67      H     -10.2113184811     2.4357203986     0.9097067795
   68      C     -13.6826293986    -0.6341575093     1.8277813983
   69      H     -13.8727268313     0.3947505366     2.1678945755
   70      H     -12.9308299761    -1.0558549463     2.5238722595
   71      H     -14.6233313775    -1.2047209521     1.9647707851
   72      C     -12.9939046738    -2.2822559862     0.0946605017
   73      H     -12.5722302181    -2.4731802792    -0.9115125723
   74      H     -13.9780312560    -2.7879060283     0.1477022127
   75      H     -12.3517175320    -2.7726568780     0.8502040310
   76      C     -14.2597233745    -0.2490724306    -0.6674113071
   77      O     -13.5208167763     1.4166577095    -2.3582661018
   78      H     -15.1882157219     1.6477031035    -1.2156076878
   79      H     -14.2307177828    -0.8297128351    -1.6124885038
   80      H     -15.2547136520    -0.4675684349    -0.2280019241
   81      C      -8.1521958911    -2.5994741188     0.3425107264
   82      H      -9.1820686127    -2.9858919115     0.3743823315
   83      H      -7.6468282742    -2.9669092640     1.2562813756
   84      H      -7.6663198613    -3.0647707855    -0.5366292454
   85      C      -2.7369319562    -2.4587348949     0.2500576599
   86      H      -3.6603080927    -3.0565171133     0.2910490118
   87      H      -2.1491322781    -2.7118061215     1.1531490363
   88      H      -2.1735924661    -2.7972833965    -0.6404879521
   89      C       2.8305423401     2.5580589619    -0.0465658791
   90      H       1.7902763278     2.9142807944    -0.0434524927
   91      H       3.3067081931     2.9509820741    -0.9661985486
   92      H       3.3348145475     3.0174673997     0.8261093673
   93      C       8.2459809235     2.6025389318    -0.1160560802
   94      H       7.3133753795     3.1851542200    -0.1258188843
   95      H       8.8126034331     2.8791020982    -1.0266224090
   96      H       8.8268982574     2.9358276301     0.7662794987
   97      H     -12.7126342732     0.8437083993    -2.3956287572
   98      H      15.1180532896    -1.2026400321    -2.0998486756
 ----------------------------------------------------------------
 Molecular Point Group                 C1    NOp =  1
 Largest Abelian Subgroup              C1    NOp =  1
 Nuclear Repulsion Energy =  3925.3044932444 hartrees
 There are      156 alpha and      156 beta electrons
 Applying Cartesian multipole field
    Component          Value
    ---------          -----
     (2,0,0)        1.00000E-12
     (0,2,0)        2.00000E-11
     (0,0,2)       -3.00000E-11
 Nucleus-field energy     =     0.0000001429 hartrees
 Requested basis set is 6-31G
 There are 238 shells and 490 basis functions
 A cutoff of  1.0D-11 yielded   8539 shell pairs
 There are     39754 function pairs
 Smallest overlap matrix eigenvalue = 1.47E-03
 Guess MOs from SCF MO coefficient file

 -----------------------------------------------------------------------
  General SCF calculation program by
  Eric Jon Sundstrom, Paul Horn, Yuezhi Mao, Dmitri Zuev, Alec White,
  David Stuck, Shaama M.S., Shane Yost, Joonho Lee, David Small,
  Daniel Levine, Susi Lehtola, Hugh Burton, Evgeny Epifanovsky
 -----------------------------------------------------------------------
 Exchange:  B88      Correlation:  LYP
 Using SG-1 standard quadrature grid
 using 4 threads for integral computing
 -------------------------------------------------------
 OpenMP Integral computing Module                
 Release: version 1.0, May 2013, Q-Chem Inc. Pittsburgh 
 -------------------------------------------------------
 -------------------------------------------------------
 OpenMP BLAS3 based DFT computing Module                
 Release: version 1.0, May 2013, Q-Chem Inc. Pittsburgh 
 -------------------------------------------------------
 A restricted SCF calculation will be
 performed using DIIS
 SCF converges when DIIS error is below 1.0e-08
 ---------------------------------------
  Cycle       Energy         DIIS error
 ---------------------------------------
    1   -1706.9894568130      4.81e-04  
    2   -1707.0048346969      1.05e-04  
    3   -1707.0042882524      1.68e-04  
    4   -1707.0050514480      5.39e-05  
    5   -1707.0051657405      1.89e-05  
    6   -1707.0051798265      7.82e-06  
    7   -1707.0051818561      2.42e-06  
    8   -1707.0051820568      5.40e-07  
    9   -1707.0051820653      2.37e-07  
   10   -1707.0051820671      1.06e-07  
   11   -1707.0051820675      2.86e-08  
   12   -1707.0051820676      1.61e-08  
   13   -1707.0051820676      3.85e-09  Convergence criterion met
 ---------------------------------------
 SCF time:   CPU 388.57s  wall 97.00s 
 SCF   energy in the final basis set =    -1707.0051820676
 Total energy in the final basis set =    -1707.0051820676
 
 --------------------------------------------------------------
 
                    Orbital Energies (a.u.)
 --------------------------------------------------------------
 
 Alpha MOs
 -- Occupied --
-18.786 -18.773  -9.969  -9.963  -9.940  -9.930  -9.930  -9.929
 -9.929  -9.928  -9.926  -9.924  -9.922  -9.920  -9.919  -9.918
 -9.917  -9.917  -9.917  -9.917  -9.916  -9.916  -9.915  -9.915
 -9.915  -9.915  -9.915  -9.915  -9.915  -9.914  -9.913  -9.913
 -9.913  -9.912  -9.912  -9.911  -9.910  -9.910  -9.907  -9.907
 -9.899  -9.889  -0.922  -0.910  -0.756  -0.752  -0.743  -0.739
 -0.730  -0.724  -0.702  -0.699  -0.696  -0.687  -0.680  -0.667
 -0.659  -0.643  -0.639  -0.623  -0.615  -0.611  -0.610  -0.605
 -0.602  -0.601  -0.596  -0.593  -0.589  -0.557  -0.543  -0.531
 -0.519  -0.507  -0.499  -0.492  -0.483  -0.481  -0.472  -0.468
 -0.462  -0.459  -0.449  -0.441  -0.431  -0.426  -0.415  -0.414
 -0.411  -0.409  -0.403  -0.398  -0.392  -0.390  -0.388  -0.382
 -0.376  -0.371  -0.367  -0.365  -0.365  -0.364  -0.363  -0.363
 -0.362  -0.360  -0.359  -0.355  -0.352  -0.346  -0.344  -0.341
 -0.340  -0.338  -0.335  -0.334  -0.330  -0.328  -0.324  -0.322
 -0.322  -0.320  -0.315  -0.311  -0.309  -0.307  -0.304  -0.301
 -0.300  -0.298  -0.295  -0.294  -0.289  -0.288  -0.285  -0.283
 -0.281  -0.280  -0.277  -0.274  -0.272  -0.269  -0.258  -0.256
 -0.255  -0.244  -0.240  -0.239  -0.227  -0.210  -0.205  -0.196
 -0.192  -0.175  -0.155  -0.137
 -- Virtual --
 -0.086  -0.060  -0.036  -0.011   0.009   0.029   0.031   0.046
  0.051   0.059   0.062   0.064   0.070   0.071   0.076   0.078
  0.080   0.082   0.083   0.086   0.087   0.089   0.092   0.092
  0.094   0.098   0.101   0.106   0.108   0.111   0.112   0.115
  0.121   0.122   0.124   0.129   0.132   0.133   0.134   0.138
  0.139   0.142   0.144   0.146   0.149   0.153   0.155   0.157
  0.158   0.158   0.160   0.162   0.162   0.165   0.168   0.171
  0.172   0.176   0.180   0.185   0.186   0.186   0.188   0.190
  0.191   0.195   0.197   0.199   0.200   0.204   0.206   0.208
  0.211   0.213   0.216   0.219   0.223   0.225   0.229   0.231
  0.234   0.235   0.249   0.252   0.253   0.258   0.263   0.266
  0.268   0.278   0.285   0.312   0.322   0.334   0.339   0.347
  0.361   0.362   0.368   0.372   0.380   0.382   0.397   0.401
  0.414   0.415   0.420   0.427   0.452   0.457   0.477   0.480
  0.485   0.487   0.490   0.491   0.496   0.496   0.502   0.503
  0.509   0.511   0.514   0.518   0.523   0.525   0.527   0.530
  0.531   0.533   0.535   0.536   0.540   0.546   0.548   0.552
  0.553   0.554   0.556   0.560   0.563   0.570   0.572   0.575
  0.577   0.582   0.590   0.595   0.598   0.600   0.602   0.607
  0.608   0.611   0.613   0.618   0.621   0.624   0.626   0.628
  0.633   0.634   0.645   0.646   0.648   0.656   0.658   0.666
  0.671   0.675   0.680   0.681   0.685   0.688   0.692   0.694
  0.695   0.699   0.702   0.707   0.710   0.714   0.715   0.723
  0.727   0.727   0.731   0.733   0.735   0.740   0.750   0.754
  0.755   0.756   0.771   0.775   0.779   0.783   0.788   0.788
  0.791   0.793   0.797   0.799   0.810   0.813   0.820   0.823
  0.824   0.825   0.835   0.840   0.843   0.845   0.851   0.856
  0.858   0.860   0.868   0.868   0.871   0.875   0.877   0.878
  0.884   0.886   0.887   0.889   0.891   0.893   0.895   0.900
  0.902   0.909   0.912   0.914   0.915   0.919   0.920   0.920
  0.924   0.929   0.929   0.933   0.938   0.941   0.944   0.945
  0.949   0.950   0.956   0.961   0.962   0.966   0.968   0.970
  0.979   0.981   0.983   0.985   0.990   1.003   1.011   1.025
  1.038   1.041   1.044   1.052   1.056   1.061   1.070   1.078
  1.081   1.083   1.086   1.091   1.104   1.120   1.124   1.128
  1.137   1.146   1.149   1.162   1.170   1.172   1.184   1.189
  1.190   1.203   1.209   1.220   1.225   1.232   1.233   1.241
  1.256   1.262   1.274   1.276   1.280   1.287   1.288   1.305
  1.329   1.333   1.347   1.359   1.403   1.409   1.419   1.431
  1.436   1.444   1.464   1.480   1.500   1.512   1.532   1.535
  1.547   1.554   1.559   1.584   1.599   1.614   1.632   1.634
  1.671   1.696   1.857   1.869   1.914   2.028
 --------------------------------------------------------------
 
          Ground-State Mulliken Net Atomic Charges

     Atom                 Charge (a.u.)
  ----------------------------------------
      1 C                    -0.141292
      2 C                    -0.077618
      3 C                    -0.163424
      4 C                     0.149319
      5 C                    -0.118499
      6 C                    -0.154909
      7 H                     0.095147
      8 H                     0.084649
      9 H                     0.096638
     10 C                     0.111073
     11 H                     0.098352
     12 C                     0.102497
     13 C                    -0.283313
     14 C                     0.098208
     15 H                     0.096467
     16 H                     0.122292
     17 C                    -0.207816
     18 O                    -0.552345
     19 H                     0.086845
     20 C                     0.004824
     21 H                     0.109159
     22 H                     0.107722
     23 C                    -0.441251
     24 H                     0.141211
     25 H                     0.123916
     26 H                     0.120656
     27 C                    -0.367804
     28 H                     0.160853
     29 H                     0.105061
     30 H                     0.103247
     31 C                    -0.359235
     32 H                     0.112392
     33 H                     0.113054
     34 H                     0.109542
     35 C                     0.154001
     36 C                    -0.168023
     37 C                    -0.078127
     38 C                    -0.082868
     39 H                     0.093959
     40 H                     0.086765
     41 H                     0.087539
     42 C                    -0.163797
     43 C                     0.146784
     44 C                    -0.135190
     45 C                    -0.079140
     46 H                     0.095180
     47 H                     0.088221
     48 C                    -0.164654
     49 C                     0.144330
     50 H                     0.085949
     51 C                    -0.111610
     52 H                     0.092899
     53 H                     0.086921
     54 C                    -0.157207
     55 H                     0.090848
     56 C                     0.107956
     57 H                     0.085668
     58 C                     0.048482
     59 C                    -0.259629
     60 C                     0.101568
     61 H                     0.118632
     62 H                     0.118830
     63 C                    -0.001905
     64 C                    -0.438482
     65 H                     0.122209
     66 H                     0.142486
     67 H                     0.142865
     68 C                    -0.366121
     69 H                     0.125430
     70 H                     0.120421
     71 H                     0.110850
     72 C                    -0.375902
     73 H                     0.117426
     74 H                     0.116074
     75 H                     0.119882
     76 C                    -0.242202
     77 O                    -0.562963
     78 H                     0.117619
     79 H                     0.120701
     80 H                     0.108481
     81 C                    -0.455770
     82 H                     0.131832
     83 H                     0.141031
     84 H                     0.140966
     85 C                    -0.453320
     86 H                     0.128921
     87 H                     0.141995
     88 H                     0.142041
     89 C                    -0.452282
     90 H                     0.129962
     91 H                     0.140055
     92 H                     0.140017
     93 C                    -0.452326
     94 H                     0.127931
     95 H                     0.141086
     96 H                     0.139043
     97 H                     0.334588
     98 H                     0.337458
  ----------------------------------------
  Sum of atomic charges =    -0.000000

 -----------------------------------------------------------------
                    Cartesian Multipole Moments
 -----------------------------------------------------------------
    Charge (ESU x 10^10)
                -0.0000
    Dipole Moment (Debye)
         X       2.2036      Y      -2.6933      Z       1.2042
       Tot       3.6824
    Quadrupole Moments (Debye-Ang)
        XX    -239.9551     XY      -8.3892     YY    -242.3355
        XZ     -26.5433     YZ       6.8526     ZZ    -270.2632
    Octopole Moments (Debye-Ang^2)
       XXX     665.2664    XXY    -587.1833    XYY      63.0217
       YYY      -0.1275    XXZ     254.2444    XYZ     -12.8431
       YYZ       0.7075    XZZ     127.1530    YZZ     -22.4745
       ZZZ     -14.7364
    Hexadecapole Moments (Debye-Ang^3)
      XXXX -153858.0998   XXXY   -3373.2477   XXYY  -26334.1423
      XYYY    -167.4602   YYYY   -3701.3206   XXXZ   -6061.8224
      XXYZ    1572.6480   XYYZ    -201.9603   YYYZ      14.1126
      XXZZ  -28001.3503   XYZZ      10.0572   YYZZ    -864.0629
      XZZZ    -326.8411   YZZZ      53.4517   ZZZZ   -1384.7147
 -----------------------------------------------------------------
 Calculating analytic gradient of the SCF energy
 Gradient of SCF Energy
            1           2           3           4           5           6
    1   0.0233236  -0.0232572   0.0219448  -0.0148857   0.0137777  -0.0135849
    2  -0.0084006   0.0118589  -0.0115151   0.0076397  -0.0120477   0.0110705
    3  -0.0000124  -0.0000492  -0.0002262   0.0004047  -0.0010053  -0.0013792
            7           8           9          10          11          12
    1  -0.0017187  -0.0000671   0.0017052   0.0063800  -0.0020226   0.0025128
    2  -0.0045559   0.0028163   0.0034468   0.0008339  -0.0038003  -0.0091376
    3   0.0002007  -0.0000488   0.0000799   0.0028902   0.0016086   0.0029016
           13          14          15          16          17          18
    1   0.0018259   0.0002209   0.0016479  -0.0029463  -0.0012046  -0.0082127
    2   0.0051413   0.0172394  -0.0022054   0.0018069  -0.0002792  -0.0118240
    3  -0.0004582  -0.0202814  -0.0000549   0.0015102  -0.0011581   0.0163796
           19          20          21          22          23          24
    1   0.0015695  -0.0010617   0.0024028  -0.0007218  -0.0011057   0.0015416
    2  -0.0005780  -0.0028519  -0.0008195  -0.0019857  -0.0016738  -0.0000611
    3  -0.0002116  -0.0025332   0.0028513   0.0009002   0.0049310  -0.0052171
           25          26          27          28          29          30
    1   0.0019499  -0.0011912  -0.0014018  -0.0008732   0.0010438  -0.0001866
    2  -0.0005804   0.0040529  -0.0075468   0.0015522   0.0015316   0.0012332
    3   0.0024291  -0.0025491   0.0057129  -0.0028130   0.0005559  -0.0015682
           31          32          33          34          35          36
    1   0.0033820  -0.0005064  -0.0014863   0.0008296  -0.0205952   0.0274034
    2  -0.0014094  -0.0018168   0.0018582   0.0014226   0.0052022  -0.0060819
    3  -0.0058665   0.0007011   0.0000150   0.0011937   0.0001242  -0.0001686
           37          38          39          40          41          42
    1  -0.0301896   0.0312101  -0.0006728  -0.0007571   0.0012183  -0.0282217
    2   0.0050368  -0.0035297  -0.0045457   0.0026918   0.0028613   0.0044733
    3   0.0002148  -0.0003493   0.0002486  -0.0000988  -0.0001165   0.0002750
           43          44          45          46          47          48
    1   0.0250930  -0.0257317   0.0273066   0.0003689  -0.0011195  -0.0238007
    2  -0.0050121   0.0092290  -0.0118498   0.0046313  -0.0028078   0.0103191
    3  -0.0002137  -0.0001309   0.0002704  -0.0002125   0.0001863  -0.0003647
           49          50          51          52          53          54
    1   0.0211196   0.0001960  -0.0187374   0.0000233   0.0007832   0.0213600
    2  -0.0077635  -0.0028108   0.0140987   0.0033890  -0.0026760  -0.0133818
    3   0.0002838   0.0001746  -0.0007611  -0.0001086   0.0001731  -0.0007434
           55          56          57          58          59          60
    1  -0.0013496  -0.0138704   0.0019102   0.0025634  -0.0021655   0.0153993
    2  -0.0056468   0.0068232   0.0059196  -0.0020093  -0.0050800   0.0072384
    3   0.0003175   0.0050687  -0.0003444  -0.0009527  -0.0010476  -0.0163313
           61          62          63          64          65          66
    1  -0.0026513   0.0008674   0.0002894   0.0026694   0.0015806  -0.0036351
    2   0.0029103   0.0011995   0.0025354  -0.0046864   0.0025728   0.0000321
    3   0.0013622  -0.0016545  -0.0028963  -0.0017864  -0.0000900  -0.0037647
           67          68          69          70          71          72
    1  -0.0038286   0.0021748  -0.0001041   0.0012893  -0.0015435  -0.0021560
    2   0.0014867   0.0026893  -0.0014740   0.0001500  -0.0004799   0.0039608
    3   0.0039753  -0.0088057   0.0026270   0.0018990   0.0008756   0.0027815
           73          74          75          76          77          78
    1   0.0002630  -0.0011225   0.0009113   0.0053749  -0.0047760  -0.0041101
    2   0.0007357  -0.0022291  -0.0012680   0.0003816  -0.0018839  -0.0018144
    3  -0.0023052   0.0011265   0.0017317   0.0016305   0.0212334   0.0012410
           79          80          81          82          83          84
    1  -0.0025645  -0.0013873  -0.0004646  -0.0001238  -0.0004160  -0.0005088
    2   0.0006608  -0.0021948   0.0025068  -0.0027671   0.0011146   0.0008648
    3  -0.0028473   0.0001380  -0.0002111   0.0002456   0.0024438  -0.0024696
           85          86          87          88          89          90
    1  -0.0003664   0.0000575  -0.0005007  -0.0005787  -0.0012407   0.0002953
    2   0.0022286  -0.0021672   0.0010320   0.0008159  -0.0020882   0.0023360
    3  -0.0001098   0.0001291   0.0024050  -0.0024925   0.0001637  -0.0001340
           91          92          93          94          95          96
    1  -0.0004533  -0.0003523  -0.0015586   0.0009144  -0.0007764  -0.0007147
    2  -0.0010976  -0.0009046  -0.0014431   0.0022885  -0.0009922  -0.0008402
    3  -0.0024045   0.0024541   0.0004759  -0.0000962  -0.0025531   0.0024244
           97          98
    1  -0.0007541   0.0016336
    2  -0.0018871  -0.0014182
    3  -0.0021906   0.0002222
 Max gradient component =       3.121E-02
 RMS gradient           =       7.196E-03
 Gradient time:  CPU 57.38 s  wall 14.59 s
 Geometry Optimization Parameters
   NAtoms,    NIC,     NZ,  NCons,   NDum,   NFix, NCnnct, MaxDiis
       98     711       0       0       0       0       0       0

 Cartesian Hessian Update
 Hessian Updated using BFGS Update


** GEOMETRY OPTIMIZATION IN DELOCALIZED INTERNAL COORDINATES **
   Searching for a Minimum

   Optimization Cycle:   2

                       Coordinates (Angstroms)
     ATOM                X               Y               Z
      1  C         4.3216857437    0.4582262549    0.0076166978
      2  C         5.4869441670    1.1700281944   -0.0338020138
      3  C         6.7963231064    0.5027475436   -0.0324194285
      4  C         8.0336110385    1.0981394014   -0.0678145758
      5  C         9.2278302491    0.2169813013   -0.0610409064
      6  C        10.5185548411    0.6590274491   -0.0653353236
      7  H         5.4438680685    2.2543151269   -0.0683488844
      8  H         6.7567885585   -0.5891800382    0.0011111350
      9  H         9.0254823365   -0.8507515683   -0.0067832188
     10  C        11.7555453812   -0.1825187429   -0.0174208478
     11  H        10.6766112998    1.7329575588   -0.0031158705
     12  C        11.8877871526   -1.4068712586   -0.6430510462
     13  C        13.1474249593   -2.2549439182   -0.4816983047
     14  C        14.4137052655   -1.4115790529   -0.2446900472
     15  H        13.2946317981   -2.9278673000   -1.3511874258
     16  H        12.9960288405   -2.9241889107    0.3933547315
     17  C        14.1367472271   -0.5177888242    0.9707589960
     18  O        14.7485216719   -0.6143280227   -1.3926551078
     19  H        15.2642928024   -2.0898059778   -0.0012284031
     20  C        12.9384597051    0.4686942436    0.7687607865
     21  H        15.0433565469    0.0365522123    1.2835937978
     22  H        13.8955211558   -1.2118814490    1.8034306563
     23  C        10.8832909126   -2.0203743786   -1.6075659055
     24  H        10.0635181304   -1.3521919719   -1.9056204656
     25  H        10.4659041949   -2.9637946963   -1.2024193578
     26  H        11.4031951923   -2.2671876987   -2.5568337936
     27  C        13.4276995235    1.7393659002    0.0045818778
     28  H        13.7360552412    1.5031522699   -1.0268312455
     29  H        14.2898044545    2.1984455859    0.5278946883
     30  H        12.6413336523    2.5153549801   -0.0526294068
     31  C        12.4705375547    0.9064937773    2.1896203917
     32  H        12.0946361499    0.0391315479    2.7667124769
     33  H        11.6586911450    1.6558988887    2.1437863620
     34  H        13.3098499231    1.3595050193    2.7534378382
     35  C         2.9623058540    1.0446367769    0.0075785318
     36  C         1.8909046527    0.1850848533    0.0568725405
     37  C         0.4662064938    0.5383103252    0.0641878830
     38  C        -0.5137425628   -0.4123003163    0.1194670554
     39  H         0.1667187458    1.5840502655    0.0251552506
     40  H         2.0992059659   -0.8871700458    0.0958049280
     41  H         4.3802180674   -0.6324164745    0.0441366340
     42  C        -1.9404649021   -0.0661163317    0.1249432768
     43  C        -2.9859116158   -0.9572672224    0.1818706017
     44  C        -4.3586839162   -0.4053305941    0.1744077367
     45  C        -5.5220567345   -1.1184231275    0.2264224655
     46  H        -5.5021122421   -2.2023641928    0.2815983856
     47  H        -4.4308135992    0.6841282356    0.1210947280
     48  C        -6.8334368074   -0.4542129353    0.2089586045
     49  C        -8.0568005466   -1.0796300550    0.2581061795
     50  H        -6.8079051190    0.6366684924    0.1503641815
     51  C        -9.2676566795   -0.2182270250    0.2242451914
     52  H        -0.2268976236   -1.4631450710    0.1611717931
     53  H        -2.1682873494    1.0015061532    0.0790791434
     54  C       -10.5566980586   -0.6690030657    0.2695894098
     55  H        -9.0432863112    0.8356032814    0.1598842745
     56  C       -11.8505201871    0.0854729746    0.2385463391
     57  H       -10.6761640316   -1.7397492592    0.3429550684
     58  C       -11.9903420870    1.4582233866    0.1201862319
     59  C       -13.4019149328    2.0467084116    0.0004759211
     60  C       -14.1634185385    1.2514140740   -1.0780503851
     61  H       -13.3733876919    3.1158118363   -0.2795411573
     62  H       -13.9594366035    2.0093207132    0.9535173339
     63  C       -13.1676025972   -0.7547661610    0.3542776584
     64  C       -10.8407826726    2.4435375476   -0.0015587922
     65  H       -11.2070041160    3.4800938812   -0.1134764380
     66  H       -10.2265727833    2.2328076895   -0.8987316799
     67  H       -10.2113184811    2.4357203986    0.9097067795
     68  C       -13.6826293986   -0.6341575093    1.8277813983
     69  H       -13.8727268313    0.3947505366    2.1678945755
     70  H       -12.9308299761   -1.0558549463    2.5238722595
     71  H       -14.6233313775   -1.2047209521    1.9647707851
     72  C       -12.9939046738   -2.2822559862    0.0946605017
     73  H       -12.5722302181   -2.4731802792   -0.9115125723
     74  H       -13.9780312560   -2.7879060283    0.1477022127
     75  H       -12.3517175320   -2.7726568780    0.8502040310
     76  C       -14.2597233745   -0.2490724306   -0.6674113071
     77  O       -13.5208167763    1.4166577095   -2.3582661018
     78  H       -15.1882157219    1.6477031035   -1.2156076878
     79  H       -14.2307177828   -0.8297128351   -1.6124885038
     80  H       -15.2547136520   -0.4675684349   -0.2280019241
     81  C        -8.1521958911   -2.5994741188    0.3425107264
     82  H        -9.1820686127   -2.9858919115    0.3743823315
     83  H        -7.6468282742   -2.9669092640    1.2562813756
     84  H        -7.6663198613   -3.0647707855   -0.5366292454
     85  C        -2.7369319562   -2.4587348949    0.2500576599
     86  H        -3.6603080927   -3.0565171133    0.2910490118
     87  H        -2.1491322781   -2.7118061215    1.1531490363
     88  H        -2.1735924661   -2.7972833965   -0.6404879521
     89  C         2.8305423401    2.5580589619   -0.0465658791
     90  H         1.7902763278    2.9142807944   -0.0434524927
     91  H         3.3067081931    2.9509820741   -0.9661985486
     92  H         3.3348145475    3.0174673997    0.8261093673
     93  C         8.2459809235    2.6025389318   -0.1160560802
     94  H         7.3133753795    3.1851542200   -0.1258188843
     95  H         8.8126034331    2.8791020982   -1.0266224090
     96  H         8.8268982574    2.9358276301    0.7662794987
     97  H       -12.7126342732    0.8437083993   -2.3956287572
     98  H        15.1180532896   -1.2026400321   -2.0998486756
   Point Group: c1    Number of degrees of freedom:   288


   Energy is  -1707.005182068

 Hessian Updated using BFGS Update

248 Hessian modes will be used to form the next step
  Hessian Eigenvalues:
     0.002000    0.002120    0.002315    0.002863    0.002893    0.003653
     0.005669    0.006478    0.006849    0.006853    0.006910    0.006925
     0.007545    0.007961    0.008019    0.008228    0.008390    0.009219
     0.009348    0.009411    0.009601    0.010084    0.010256    0.010733
     0.010769    0.010855    0.010978    0.011114    0.012640    0.013219
     0.013266    0.013605    0.013718    0.014036    0.014097    0.015370
     0.017125    0.018658    0.019078    0.019409    0.019469    0.019529
     0.019547    0.019580    0.019617    0.019829    0.019975    0.020131
     0.020344    0.020427    0.026608    0.027987    0.028017    0.028082
     0.028372    0.028612    0.029044    0.029107    0.029530    0.029561
     0.030101    0.033057    0.033286    0.043148    0.045365    0.046452
     0.048401    0.048576    0.048837    0.049460    0.052097    0.052224
     0.053544    0.053658    0.053948    0.054165    0.054940    0.054979
     0.055147    0.055210    0.055973    0.062431    0.064780    0.065391
     0.065926    0.066756    0.067341    0.067993    0.068153    0.068835
     0.069172    0.070614    0.072424    0.073294    0.073584    0.073739
     0.074207    0.074285    0.075123    0.083796    0.085587    0.088036
     0.088298    0.088767    0.095055    0.099312    0.099643    0.130651
     0.133458    0.141951    0.149630    0.152638    0.159583    0.159915
     0.159999    0.159999    0.160000    0.160000    0.160000    0.160000
     0.160000    0.163520    0.166022    0.167874    0.177105    0.187008
     0.208815    0.216107    0.220000    0.220000    0.220000    0.220000
     0.220000    0.220026    0.220120    0.222515    0.224590    0.247018
     0.248816    0.249444    0.249883    0.249985    0.250000    0.250000
     0.250000    0.250000    0.250000    0.250000    0.251235    0.256721
     0.260041    0.262619    0.267774    0.268281    0.271914    0.273852
     0.275558    0.279511    0.284176    0.285533    0.286441    0.290487
     0.295312    0.298970    0.302846    0.304302    0.306013    0.306237
     0.306482    0.307792    0.314265    0.316096    0.319022    0.320836
     0.321162    0.322450    0.323350    0.323483    0.323603    0.323652
     0.323839    0.323946    0.324070    0.324151    0.324415    0.324450
     0.324495    0.324552    0.324925    0.325263    0.325384    0.325403
     0.325424    0.325428    0.325497    0.325725    0.325783    0.325810
     0.325822    0.325843    0.325896    0.325951    0.326292    0.326392
     0.326594    0.327878    0.328514    0.329839    0.331986    0.334610
     0.334871    0.335146    0.335766    0.335950    0.336596    0.337060
     0.337517    0.338359    0.339117    0.350123    0.350195    0.350282
     0.350348    0.350416    0.350662    0.353247    0.356004    0.358451
     0.361126    0.362744    0.363296    0.377891    0.385473    0.434724
     0.450201    0.459080    0.471347    0.489813    0.490037    0.533763
     0.534277    0.535076    0.539635    0.542724    0.551955    0.557958
     0.560110    0.570317

 Minimum Search - Taking Simple RFO Step
 Searching for Lamda that Minimizes Along All modes
 Value Taken    Lamda =  -0.02406839
 Calculated Step too Large.  Step scaled by  0.764957
 Step Taken.  Stepsize is  0.300000

                             Maximum     Tolerance    Cnvgd?
         Gradient           0.028527      0.000300      NO
         Displacement       0.081691      0.001200      NO
         Energy change     -0.030581      0.000001      NO


 New Cartesian Coordinates Obtained by Inverse Iteration

 Displacement from previous Coordinates is:  0.988503
 ----------------------------------------------------------------
             Standard Nuclear Orientation (Angstroms)
    I     Atom           X                Y                Z
 ----------------------------------------------------------------
    1      C       4.3128021033     0.4605209049    -0.0367801678
    2      C       5.5024529979     1.1573807497    -0.0769032687
    3      C       6.7924750215     0.5056074560    -0.0590613793
    4      C       8.0425133248     1.0998899396    -0.0876432126
    5      C       9.2269762689     0.2342530481    -0.0596719590
    6      C      10.5306104039     0.6644885360    -0.0498076825
    7      H       5.4767135083     2.2482753771    -0.1212821757
    8      H       6.7565216671    -0.5902720663    -0.0154594406
    9      H       9.0168789423    -0.8379258222    -0.0064300248
   10      C      11.7522830202    -0.1704437636     0.0064750657
   11      H      10.7024366545     1.7424675337    -0.0002745209
   12      C      11.8692334718    -1.3860271546    -0.6272887979
   13      C      13.1180291534    -2.2621940029    -0.4671283089
   14      C      14.3992920354    -1.4408486233    -0.1928280018
   15      H      13.2572320807    -2.9140351329    -1.3505976610
   16      H      12.9627907310    -2.9514532526     0.3903188598
   17      C      14.1211956107    -0.5315923946     1.0159127808
   18      O      14.7722043875    -0.6143688882    -1.3407983007
   19      H      15.2348160979    -2.1325952589     0.0508451365
   20      C      12.9366756102     0.4752365073     0.8088544895
   21      H      15.0287414065     0.0172284580     1.3226940411
   22      H      13.8659323831    -1.2123058035     1.8511641956
   23      C      10.8399892035    -1.9689627249    -1.5869717412
   24      H      10.0310718809    -1.2696334023    -1.8403119927
   25      H      10.3894582525    -2.9008859097    -1.1932613836
   26      H      11.3412840380    -2.2370228314    -2.5388931367
   27      C      13.4540478210     1.7457832668     0.0488720445
   28      H      13.7770604796     1.4936088005    -0.9709085278
   29      H      14.3150265370     2.1841130129     0.5860071994
   30      H      12.6788005940     2.5299766874    -0.0123987396
   31      C      12.4584725604     0.9111800051     2.2345264114
   32      H      12.0676739973     0.0484830590     2.8028647416
   33      H      11.6588459128     1.6680324119     2.1860553397
   34      H      13.3005789993     1.3457571051     2.8032904656
   35      C       2.9735750955     1.0367885428    -0.0476398729
   36      C       1.8851824389     0.1779865687     0.0061095733
   37      C       0.4866145006     0.5222667830     0.0081684356
   38      C      -0.5254952658    -0.4179145118     0.0707170045
   39      H       0.2043161801     1.5787138667    -0.0403577514
   40      H       2.0960541915    -0.8976074573     0.0554378035
   41      H       4.3570934008    -0.6345519629     0.0108488003
   42      C      -1.9248611578    -0.0787338735     0.0744398332
   43      C      -2.9883835858    -0.9690873355     0.1397767583
   44      C      -4.3393739210    -0.4272924183     0.1324138905
   45      C      -5.5318779918    -1.1199398169     0.1890863904
   46      H      -5.5286172045    -2.2104896450     0.2478356993
   47      H      -4.3953416575     0.6669229448     0.0746991219
   48      C      -6.8171627067    -0.4628351835     0.1753336515
   49      C      -8.0573134472    -1.0802962398     0.2289698288
   50      H      -6.7886778939     0.6321749449     0.1163432068
   51      C      -9.2494073814    -0.2264993642     0.2025214719
   52      H      -0.2515712339    -1.4770587300     0.1216720675
   53      H      -2.1538299983     0.9926056178     0.0208701073
   54      C     -10.5581894215    -0.6551779673     0.2578902605
   55      H      -9.0130164637     0.8320627990     0.1365343955
   56      C     -11.8309925568     0.0893367531     0.2384485939
   57      H     -10.6923056366    -1.7309274408     0.3363148987
   58      C     -11.9766929248     1.4646528409     0.1265528054
   59      C     -13.3898062932     2.0531285470     0.0306566917
   60      C     -14.1978203722     1.2496878205    -1.0188471584
   61      H     -13.3524320387     3.1145664151    -0.2629862858
   62      H     -13.9252732414     2.0209200853     0.9993775117
   63      C     -13.1494563475    -0.7585633671     0.3915430048
   64      C     -10.8306898487     2.4579076058    -0.0023291681
   65      H     -11.2171167675     3.4856535593    -0.0991714213
   66      H     -10.2114077867     2.2630156977    -0.8976883546
   67      H     -10.1708096324     2.4439624267     0.8849772686
   68      C     -13.6290839782    -0.6484871141     1.8845251397
   69      H     -13.8095489119     0.3860818058     2.2144544802
   70      H     -12.8622666744    -1.0733725364     2.5569391261
   71      H     -14.5647533670    -1.2184502656     2.0363296908
   72      C     -12.9841823453    -2.2857159333     0.1070441332
   73      H     -12.5861327129    -2.4719687558    -0.9060266861
   74      H     -13.9709595598    -2.7777243862     0.1732414543
   75      H     -12.3305879842    -2.7857429296     0.8409476307
   76      C     -14.2777865324    -0.2485530561    -0.5947600363
   77      O     -13.5965743136     1.4136207137    -2.3459386969
   78      H     -15.2146585780     1.6592988708    -1.1335442081
   79      H     -14.2674404145    -0.8402188366    -1.5296051404
   80      H     -15.2570005780    -0.4575167819    -0.1234383686
   81      C      -8.1583002364    -2.6021167433     0.3122786287
   82      H      -9.1952346263    -2.9628377226     0.3453782105
   83      H      -7.6526593569    -2.9841558650     1.2173604021
   84      H      -7.6783796846    -3.0787291600    -0.5616517873
   85      C      -2.7428126040    -2.4737080798     0.2178957750
   86      H      -3.6754463458    -3.0528891698     0.2638612133
   87      H      -2.1528377890    -2.7330778977     1.1152435830
   88      H      -2.1805354193    -2.8301367371    -0.6637584443
   89      C       2.8399680650     2.5522249764    -0.1146491595
   90      H       1.7932607868     2.8877981139    -0.1168989369
   91      H       3.3169153451     2.9491780781    -1.0294357292
   92      H       3.3381846890     3.0291389616     0.7492521415
   93      C       8.2489209013     2.6068565832    -0.1469444642
   94      H       7.3031133744     3.1665777806    -0.1713002822
   95      H       8.8251251493     2.8897591761    -1.0466910458
   96      H       8.8185219728     2.9610526206     0.7320475405
   97      H     -12.7771626684     0.8579725663    -2.3863508949
   98      H      15.1305356041    -1.1973938013    -2.0559823981
 ----------------------------------------------------------------
 Molecular Point Group                 C1    NOp =  1
 Largest Abelian Subgroup              C1    NOp =  1
 Nuclear Repulsion Energy =  3923.4626900269 hartrees
 There are      156 alpha and      156 beta electrons
 Applying Cartesian multipole field
    Component          Value
    ---------          -----
     (2,0,0)        1.00000E-12
     (0,2,0)        2.00000E-11
     (0,0,2)       -3.00000E-11
 Nucleus-field energy     =     0.0000001429 hartrees
 Requested basis set is 6-31G
 There are 238 shells and 490 basis functions
 A cutoff of  1.0D-11 yielded   8539 shell pairs
 There are     39727 function pairs
 Smallest overlap matrix eigenvalue = 1.45E-03
 Guess MOs from SCF MO coefficient file

 -----------------------------------------------------------------------
  General SCF calculation program by
  Eric Jon Sundstrom, Paul Horn, Yuezhi Mao, Dmitri Zuev, Alec White,
  David Stuck, Shaama M.S., Shane Yost, Joonho Lee, David Small,
  Daniel Levine, Susi Lehtola, Hugh Burton, Evgeny Epifanovsky
 -----------------------------------------------------------------------
 Exchange:  B88      Correlation:  LYP
 Using SG-1 standard quadrature grid
 using 4 threads for integral computing
 -------------------------------------------------------
 OpenMP Integral computing Module                
 Release: version 1.0, May 2013, Q-Chem Inc. Pittsburgh 
 -------------------------------------------------------
 -------------------------------------------------------
 OpenMP BLAS3 based DFT computing Module                
 Release: version 1.0, May 2013, Q-Chem Inc. Pittsburgh 
 -------------------------------------------------------
 A restricted SCF calculation will be
 performed using DIIS
 SCF converges when DIIS error is below 1.0e-08
 ---------------------------------------
  Cycle       Energy         DIIS error
 ---------------------------------------
    1   -1707.0097029833      3.29e-04  
    2   -1707.0171423151      9.95e-05  
    3   -1707.0166394384      1.66e-04  
    4   -1707.0173338421      4.24e-05  
    5   -1707.0174000413      1.96e-05  
    6   -1707.0174164180      8.00e-06  
    7   -1707.0174186905      2.50e-06  
