
Running Job 1 of 1 sys_2_car_1_opt_sto3g_gga.in
qchem sys_2_car_1_opt_sto3g_gga.in_14214.0 /scr/c295_lal/157316/qchem14214/ 1
/usr/software/qchem_511/exe/qcprog.exe_s sys_2_car_1_opt_sto3g_gga.in_14214.0 /scr/c295_lal/157316/qchem14214/
Check license passed

                  Welcome to Q-Chem
     A Quantum Leap Into The Future Of Chemistry


 Q-Chem 5.1, Q-Chem, Inc., Pleasanton, CA (2018)

 Yihan Shao,  Zhengting Gan,  E. Epifanovsky,  A. T. B. Gilbert,  M. Wormit,  
 J. Kussmann,  A. W. Lange,  A. Behn,  Jia Deng,  Xintian Feng,  D. Ghosh,  
 M. Goldey,  P. R. Horn,  L. D. Jacobson,  I. Kaliman,  T. Kus,  A. Landau,  
 Jie Liu,  E. I. Proynov,  R. M. Richard,  R. P. Steele,  E. J. Sundstrom,  
 H. L. Woodcock III,  P. M. Zimmerman,  D. Zuev,  B. Albrecht,  E. Alguire,  
 S. A. Baeppler,  D. Barton,  Z. Benda,  Y. A. Bernard,  E. J. Berquist,  
 K. B. Bravaya,  H. Burton,  D. Casanova,  Chun-Min Chang,  Yunqing Chen,  
 A. Chien,  K. D. Closser,  M. P. Coons,  S. Coriani,  S. Dasgupta,  
 A. L. Dempwolff,  M. Diedenhofen,  Hainam Do,  R. G. Edgar,  Po-Tung Fang,  
 S. Faraji,  S. Fatehi,  Qingguo Feng,  K. D. Fenk,  J. Fosso-Tande,  
 Qinghui Ge,  A. Ghysels,  G. Gidofalvi,  J. Gomes,  J. Gonthier,  A. Gunina,  
 D. Hait,  M. W. D. Hanson-Heine,  P. H. P. Harbach,  A. W. Hauser,  
 J. E. Herr,  E. G. Hohenstein,  Z. C. Holden,  Kerwin Hui,  B. C. Huynh,  
 T.-C. Jagau,  Hyunjun Ji,  B. Kaduk,  K. Khistyaev,  Jaehoon Kim,  
 P. Klunzinger,  K. Koh,  D. Kosenkov,  L. Koulias,  T. Kowalczyk,  
 C. M. Krauter,  A. Kunitsa,  Ka Un Lao,  A. Laurent,  K. V. Lawler,  
 Joonho Lee,  D. Lefrancois,  S. Lehtola,  D. S. Levine,  Yi-Pei Li,  
 You-Sheng Lin,  Fenglai Liu,  E. Livshits,  A. Luenser,  P. Manohar,  
 E. Mansoor,  S. F. Manzer,  Shan-Ping Mao,  Yuezhi Mao,  N. Mardirossian,  
 A. V. Marenich,  T. Markovich,  L. A. Martinez-Martinez,  S. A. Maurer,  
 N. J. Mayhall,  S. C. McKenzie,  J.-M. Mewes,  A. F. Morrison,  
 J. W. Mullinax,  K. Nanda,  T. S. Nguyen-Beck,  R. Olivares-Amaya,  
 J. A. Parkhill,  T. M. Perrine,  F. Plasser,  P. Pokhilko,  S. Prager,  
 A. Prociuk,  E. Ramos,  D. R. Rehn,  F. Rob,  M. Schneider,  N. Sergueev,  
 S. M. Sharada,  S. Sharma,  D. W. Small,  T. Stauch,  T. Stein,  
 Yu-Chuan Su,  A. J. W. Thom,  A. Tkatchenko,  T. Tsuchimochi,  N. M. Tubman,  
 L. Vogt,  M. L. Vidal,  O. Vydrov,  M. A. Watson,  J. Wenzel,  
 M. de Wergifosse,  T. A. Wesolowski,  A. White,  J. Witte,  A. Yamada,  
 Jun Yang,  K. Yao,  S. Yeganeh,  S. R. Yost,  Zhi-Qiang You,  A. Zech,  
 Igor Ying Zhang,  Xing Zhang,  Yan Zhao,  Ying Zhu,  B. R. Brooks,  
 G. K. L. Chan,  C. J. Cramer,  M. S. Gordon,  W. J. Hehre,  A. Klamt,  
 M. W. Schmidt,  C. D. Sherrill,  D. G. Truhlar,  A. Aspuru-Guzik,  R. Baer,  
 A. T. Bell,  N. A. Besley,  Jeng-Da Chai,  A. E. DePrince, III,  
 R. A. DiStasio Jr.,  A. Dreuw,  B. D. Dunietz,  T. R. Furlani,  
 Chao-Ping Hsu,  Yousung Jung,  Jing Kong,  D. S. Lambrecht,  WanZhen Liang,  
 C. Ochsenfeld,  V. A. Rassolov,  L. V. Slipchenko,  J. E. Subotnik,  
 T. Van Voorhis,  J. M. Herbert,  A. I. Krylov,  P. M. W. Gill,  M. Head-Gordon

 Contributors to earlier versions of Q-Chem not listed above: 
 R. D. Adamson,  B. Austin,  J. Baker,  G. J. O. Beran,  K. Brandhorst,  
 S. T. Brown,  E. F. C. Byrd,  A. K. Chakraborty,  C.-L. Cheng,  
 Siu Hung Chien,  D. M. Chipman,  D. L. Crittenden,  H. Dachsel,  
 R. J. Doerksen,  A. D. Dutoi,  L. Fusti-Molnar,  W. A. Goddard III,  
 A. Golubeva-Zadorozhnaya,  S. R. Gwaltney,  G. Hawkins,  A. Heyden,  
 S. Hirata,  G. Kedziora,  F. J. Keil,  C. Kelley,  Jihan Kim,  R. A. King,  
 R. Z. Khaliullin,  P. P. Korambath,  W. Kurlancheek,  A. M. Lee,  M. S. Lee,  
 S. V. Levchenko,  Ching Yeh Lin,  D. Liotard,  R. C. Lochan,  I. Lotan,  
 P. E. Maslen,  N. Nair,  D. P. O'Neill,  D. Neuhauser,  E. Neuscamman,  
 C. M. Oana,  R. Olson,  B. Peters,  R. Peverati,  P. A. Pieniazek,  
 Y. M. Rhee,  J. Ritchie,  M. A. Rohrdanz,  E. Rosta,  N. J. Russ,  
 H. F. Schaefer III,  N. E. Schultz,  N. Shenvi,  A. C. Simmonett,  A. Sodt,  
 D. Stuck,  K. S. Thanthiriwatte,  V. Vanovschi,  Tao Wang,  A. Warshel,  
 C. F. Williams,  Q. Wu,  X. Xu,  W. Zhang

 Please cite Q-Chem as follows:
 Y. Shao et al., Mol. Phys. 113, 184-215 (2015)
 DOI: 10.1080/00268976.2014.952696

 Q-Chem 5.1.1 for Intel X86 EM64T Linux

 Parts of Q-Chem use Armadillo 8.300.2 (Tropical Shenanigans).
 http://arma.sourceforge.net/

 Q-Chem begins on Tue Nov 27 22:50:00 2018  

Host: cub-0-7.local
0

     Scratch files written to /scr/c295_lal/157316/qchem14214//
 Aug318 |scratch|qcdevops|jenkins|workspace|build_RNUM -1
Processing $rem in /usr/software/qchem_511/config/preferences.
 MEM_TOTAL  2000 
Input Ideriv = 2
Curr. Ideriv = -1
Max.  Ideriv = 2

Checking the input file for inconsistencies... 	...done.

--------------------------------------------------------------
User input:
--------------------------------------------------------------
$molecule
2 5
Fe         0.29287       -0.25576        0.08878
O          0.53560       -1.96218        0.74805
O          0.26827       -3.13685        0.29863
H          3.96830       -6.67179        3.20560
H          4.15730       -8.16639        2.23800
C          3.48220       -7.31939        2.45720
H          2.56990       -7.73289        2.91980
H          5.17140       -5.03699        2.37690
H          5.21180       -6.77849        0.51460
C          4.97570       -4.76399        1.32440
C          3.15730       -6.54449        1.16130
C          4.45610       -5.97269        0.55590
H          5.93810       -4.41959        0.90950
H         -1.39170       -7.06339        3.32950
H          0.71660       -6.87129        2.20370
H          3.32860       -8.27639       -0.15100
C          2.56600       -7.52819        0.13100
C          2.14990       -5.41689        1.47350
H          4.20690       -2.83489        1.97190
H          1.69090       -8.07139        0.52290
C          3.93890       -3.64559        1.26950
C          0.78580       -5.89079        1.71790
C         -1.83610       -7.13449        2.32120
C          2.52620       -4.10339        1.55790
H         -1.29540       -7.94109        1.79440
H          2.12690       -2.21559        2.51500
H         -2.87750       -7.45779        2.44150
H          4.25590       -5.67289       -0.49120
C          1.59060       -2.98399        1.93060
H          0.72840       -3.32889        2.52020
C         -0.38370       -5.29869        1.34140
H          2.25100       -6.99659       -0.78320
H          3.95920       -3.17079        0.26440
C         -1.71460       -5.82889        1.58310
H          1.18790       -2.46639        1.03780
H         -0.34960       -4.35909        0.78230
H         -4.45320       -6.39459        1.74970
C         -2.79800       -5.11429        1.13270
C         -4.19550       -5.45039        1.25910
H         -2.58780       -4.16949        0.61540
C         -5.20320       -4.66749        0.80260
H         -6.25120       -4.95249        0.91330
H         -5.00120       -3.71209        0.30670
$end

$rem
BASIS = STO-3G
METHOD  = BLYP
JOBTYPE = OPT
MAX_SCF_CYCLES = 500
SCF_ALGORITHM = DIIS_GDM
$end
--------------------------------------------------------------
 ----------------------------------------------------------------
             Standard Nuclear Orientation (Angstroms)
    I     Atom           X                Y                Z
 ----------------------------------------------------------------
    1      Fe     -1.6790327831     3.9120688508    -0.1759868447
    2      O      -0.9206306281     2.2590553711     0.1367376498
    3      O      -0.8632566873     1.1641712257    -0.5349990644
    4      H       3.8492887650    -1.6152897945     1.6336431798
    5      H       4.4067018283    -2.7791028231     0.3924220750
    6      C       3.5297011320    -2.2237013646     0.7713899478
    7      H       2.8013419408    -2.9652928386     1.1412646216
    8      H       4.4848333209     0.4253209936     1.1450174858
    9      H       4.9222834430    -0.8449729293    -1.0223787493
   10      C       4.1618338141     0.8222139935     0.1658693840
   11      C       2.9256577000    -1.3482037990    -0.3484414568
   12      C       3.9703412248    -0.3182744685    -0.8261733349
   13      H       4.9605595341     1.5046909266    -0.1706266636
   14      H      -1.1570587479    -3.5733379693     1.6625169665
   15      H       0.7424444179    -2.5646702482     0.6024537176
   16      H       3.5155275472    -2.6747730325    -1.9742397905
   17      C       2.5866677752    -2.2494168884    -1.5533150055
   18      C       1.6553325138    -0.6444177581     0.1757383692
   19      H       2.9076625974     2.2841005702     1.1766506146
   20      H       1.9272934054    -3.0884183287    -1.2780807716
   21      C       2.8460127812     1.5778968663     0.3281814762
   22      C       0.5003815058    -1.5336855004     0.3184703969
   23      C      -1.6165987268    -3.5801153837     0.6585286526
   24      C       1.6423608321     0.6812257092     0.5170716860
   25      H      -0.8965090636    -4.0790282712    -0.0145501671
   26      H       0.7702883683     2.1541600538     1.8244445380
   27      H      -2.5130030960    -4.2104442391     0.7100425437
   28      H       3.6356323287     0.1014122890    -1.7947865035
   29      C       0.4463525212     1.3869307661     1.0991829321
   30      H      -0.2468811717     0.7003953207     1.6071879903
   31      C      -0.8086528174    -1.2496953373     0.0618702451
   32      H       2.0828226939    -1.6710016432    -2.3465117894
   33      H       2.6741687998     2.2182351243    -0.5642924458
   34      C      -1.9158255507    -2.1815296707     0.1910176566
   35      H      -0.1361676770     1.9225423137     0.3239672339
   36      H      -1.0765271658    -0.2535204623    -0.3021115288
   37      H      -4.3630412284    -3.5441990722     0.2353971434
   38      C      -3.1817550409    -1.7435934937    -0.1137827872
   39      C      -4.4146778740    -2.4912157135    -0.0598501990
   40      H      -3.2804435626    -0.6989120267    -0.4352350826
   41      C      -5.6281755159    -1.9659567017    -0.3570208464
   42      H      -6.5424200978    -2.5604997116    -0.3074331076
   43      H      -5.7365839440    -0.9177646316    -0.6554349325
 ----------------------------------------------------------------
 Molecular Point Group                 C1    NOp =  1
 Largest Abelian Subgroup              C1    NOp =  1
 Nuclear Repulsion Energy =  1727.4958292643 hartrees
 There are       82 alpha and       78 beta electrons
 Requested basis set is STO-3G
 There are 65 shells and 132 basis functions

 Total QAlloc Memory Limit   2000 MB
 Mega-Array Size       188 MB
 MEM_STATIC part       192 MB
 A cutoff of  1.0D-12 yielded   1593 shell pairs
 There are      7067 function pairs (      7143 Cartesian)
 
 -------------------------------------------------------
 OpenMP Integral Computing Module                       
 Release: version 1.0, May 2013, Q-Chem Inc. Pittsburgh 
 -------------------------------------------------------
 Integral Job Info:
 Integral job number is                      11
 Integral operator is                         1
 short-range coefficients                     0
 long-range coefficients              100000000
 Omega coefficients                           0
 if combine SR and LR in K                    0
 Integral screening is                        0
 Integral computing path is                   2
 max size of driver memory is            800000
 size of driver memory is                593474
 size of scratch memory is             10861360
 max col of scratch BK array               1296
 max len of scratch array in speh3          155
 max len of scratch index in speh4           18
 max int batch size is                      520
 min int batch size is                       52
 fixed nKL is                                52
 max L of basis functions is                  2
 order of int derivative is                   0
 number of shells is                         65
 number of basis is                         133
 number of cartesian basis is               133
 number of contracted shell pairs          1593
 number of primitive shell pairs           8578
 maxK2 (contraction) of shell pair            9
 max number of K2 of shell pair               1
 max number of CS2 of shell pair            213
 max number of PS2 of shell pair           1056
 mem total for path MDJ                  534602
 -------------------------------------------------------
 Smallest overlap matrix eigenvalue = 1.53E-01

 Scale SEOQF with 1.000000e-02/1.000000e-01/1.000000e-01

 Standard Electronic Orientation quadrupole field applied
 Nucleus-field energy     =     0.0000000608 hartrees
 Guess from superposition of atomic densities
 Warning:  Energy on first SCF cycle will be non-variational
 SAD guess density has 162.000000 electrons

 -----------------------------------------------------------------------
  General SCF calculation program by
  Eric Jon Sundstrom, Paul Horn, Yuezhi Mao, Dmitri Zuev, Alec White,
  David Stuck, Shaama M.S., Shane Yost, Joonho Lee, David Small,
  Daniel Levine, Susi Lehtola, Hugh Burton, Evgeny Epifanovsky
 -----------------------------------------------------------------------
 Exchange:  B88      Correlation:  LYP
 Using SG-1 standard quadrature grid
 using 8 threads for integral computing
 -------------------------------------------------------
 OpenMP Integral computing Module                
 Release: version 1.0, May 2013, Q-Chem Inc. Pittsburgh 
 -------------------------------------------------------
 -------------------------------------------------------
 OpenMP BLAS3 based DFT computing Module                
 Release: version 1.0, May 2013, Q-Chem Inc. Pittsburgh 
 -------------------------------------------------------
 A unrestricted SCF calculation will be
 performed using DIIS, GDM
 SCF converges when RMS gradient is below 1.0e-08
 ---------------------------------------
  Cycle       Energy         DIIS error
 ---------------------------------------
    1   -2012.8374585054      4.28e-02  
    2   -2010.0927329903      1.54e-02  
    3   -1992.0956173011      2.86e-02  
    4   -1992.1595185809      2.23e-02  
    5   -1992.5850686555      2.20e-02  
    6   -2003.7503525075      1.55e-02  
    7   -2001.8281485693      1.44e-02  
    8   -2011.4718699191      9.04e-03  Done DIIS. Switching to GDM
 ---------------------------------------
  Cycle       Energy        RMS Gradient
 ---------------------------------------
    1   -2011.4718699191      1.12e+00   Descent step
    2   -2012.1066262965      1.16e+00   Descent step
    3   -2012.5550008750      1.36e+00   Descent step
    4   -2012.9578793324      4.03e-01   Descent step
    5   -2013.1606422203      1.48e-01   Descent step
    6   -2013.3419573001      1.54e-01   Descent step
    7   -2013.3167794961      7.45e-01  Line search: overstep
    8   -2013.3942204225      3.04e-01   Descent step
    9   -2013.1036497410      5.31e-01  Line search: overstep
   10   -2013.4192778838      2.60e-01   Descent step
   11   -2013.0519000694      1.55e+00  Line search: overstep
   12   -2013.4370699436      9.62e-02   Descent step
   13   -2013.4241588121      7.40e-01  Line search: overstep
   14   -2013.4636036224      3.55e-01   Descent step
   15   -2012.9914597818      1.40e+00  Line search: overstep
   16   -2013.4934149755      1.36e-01   Descent step
   17   -2013.5681886434      1.36e-01   Descent step
   18   -2013.3834317500      8.78e-01  Line search: overstep
   19   -2013.5793514189      5.93e-02   Dog-leg BFGS step
   20   -2013.5675497288      1.56e-01  Line search: overstep
   21   -2013.5894640191      2.26e-02   Normal BFGS step
   22   -2013.5910238023      2.60e-02   Normal BFGS step
   23   -2013.5914065328      2.70e-02   Normal BFGS step
   24   -2013.5916899430      2.68e-02   Normal BFGS step
   25   -2013.5922262944      1.37e-02   Normal BFGS step
   26   -2013.5926908287      1.14e-02   Normal BFGS step
   27   -2013.5925441319      2.69e-02  Line search: overstep
   28   -2013.5928583930      7.05e-03   Normal BFGS step
   29   -2013.5929050060      7.95e-03   Normal BFGS step
   30   -2013.5929464924      8.46e-03   Normal BFGS step
   31   -2013.5929661276      3.42e-03   Normal BFGS step
   32   -2013.5929980999      2.87e-03   Normal BFGS step
   33   -2013.5930094803      1.93e-03   Normal BFGS step
   34   -2013.5930234688      1.04e-03   Normal BFGS step
   35   -2013.5930262017      1.51e-03   Normal BFGS step
   36   -2013.5930304887      4.16e-04   Normal BFGS step
   37   -2013.5930310351      3.24e-04   Normal BFGS step
   38   -2013.5930317059      1.60e-04   Normal BFGS step
   39   -2013.5930316959      2.31e-04   Normal BFGS step
   40   -2013.5930318540      5.08e-05   Normal BFGS step
   41   -2013.5930318522      6.33e-05   Normal BFGS step
   42   -2013.5930318608      1.44e-05   Normal BFGS step
   43   -2013.5930318605      1.40e-05   Normal BFGS step
   44   -2013.5930318617      7.40e-06   Normal BFGS step
   45   -2013.5930318611      2.58e-05   Normal BFGS step
   46   -2013.5930318618      2.65e-06   Normal BFGS step
   47   -2013.5930318617      3.71e-06   Normal BFGS step
   48   -2013.5930318618      1.36e-06   Normal BFGS step
   49   -2013.5930318618      5.38e-06   Normal BFGS step
   50   -2013.5930318618      2.19e-06   Normal BFGS step
   51   -2013.5930318618      1.99e-06   Normal BFGS step
   52   -2013.5930318618      3.56e-07   Normal BFGS step
   53   -2013.5930318618      7.74e-07   Normal BFGS step
   54   -2013.5930318618      7.90e-08   Normal BFGS step
   55   -2013.5930318618      1.47e-07   Normal BFGS step
   56   -2013.5930318618      2.14e-08   Normal BFGS step
  /scratch/qcdevops/jenkins/workspace/build_qchem_linux_distrib/tags/qc511/qchem/libgscf/libgscf/opt/gdm.C::WARNING energy changes are now smaller than effective accuracy.
  /scratch/qcdevops/jenkins/workspace/build_qchem_linux_distrib/tags/qc511/qchem/libgscf/libgscf/opt/gdm.C::        calculation will continue, but THRESH should be increased
  /scratch/qcdevops/jenkins/workspace/build_qchem_linux_distrib/tags/qc511/qchem/libgscf/libgscf/opt/gdm.C::        or SCF_CONVERGENCE decreased. 
  /scratch/qcdevops/jenkins/workspace/build_qchem_linux_distrib/tags/qc511/qchem/libgscf/libgscf/opt/gdm.C::        effective_thresh = 2.50e-09
   57   -2013.5930318618      1.72e-08   Normal BFGS step
   58   -2013.5930318618      5.12e-09  Convergence criterion met
 ---------------------------------------
 SCF time:   CPU 472.84s  wall 60.00s 
<S^2> =          6.967972483
 SCF   energy in the final basis set =    -2013.5930318618
 Total energy in the final basis set =    -2013.5930318618
 
 --------------------------------------------------------------
 
                    Orbital Energies (a.u.)
 --------------------------------------------------------------
 
 Alpha MOs
 -- Occupied --
******* -29.671 -26.225 -26.225 -26.220 -19.062 -18.935 -10.076
-10.072 -10.068 -10.064 -10.059 -10.054 -10.038 -10.037 -10.023
-10.023 -10.014 -10.003  -9.975  -9.970  -9.964  -9.962  -3.870
 -2.710  -2.710  -2.698  -1.472  -1.053  -1.017  -0.992  -0.953
 -0.945  -0.912  -0.904  -0.873  -0.845  -0.823  -0.803  -0.793
 -0.787  -0.759  -0.742  -0.723  -0.711  -0.701  -0.682  -0.663
 -0.648  -0.635  -0.623  -0.617  -0.608  -0.595  -0.585  -0.584
 -0.574  -0.564  -0.559  -0.555  -0.545  -0.541  -0.540  -0.540
 -0.537  -0.534  -0.529  -0.528  -0.520  -0.518  -0.511  -0.503
 -0.497  -0.490  -0.482  -0.469  -0.457  -0.455  -0.448  -0.440
 -0.425  -0.412
 -- Virtual --
 -0.393  -0.378  -0.317  -0.301  -0.290  -0.218  -0.181  -0.168
 -0.121  -0.088   0.003   0.012   0.050   0.060   0.069   0.080
  0.090   0.095   0.097   0.107   0.122   0.125   0.128   0.136
  0.139   0.144   0.156   0.160   0.162   0.176   0.189   0.197
  0.202   0.207   0.215   0.221   0.234   0.238   0.245   0.249
  0.252   0.266   0.275   0.278   0.314   0.335   0.359   0.382
  0.425   0.569
 
 Beta MOs
 -- Occupied --
******* -29.629 -26.191 -26.191 -26.187 -19.066 -18.945 -10.076
-10.072 -10.067 -10.064 -10.058 -10.055 -10.037 -10.037 -10.025
-10.023 -10.014 -10.003  -9.975  -9.970  -9.964  -9.962  -3.649
 -2.487  -2.486  -2.485  -1.488  -1.080  -1.018  -0.992  -0.957
 -0.945  -0.912  -0.906  -0.873  -0.845  -0.825  -0.803  -0.793
 -0.788  -0.766  -0.743  -0.726  -0.722  -0.707  -0.686  -0.670
 -0.648  -0.637  -0.626  -0.618  -0.609  -0.597  -0.585  -0.583
 -0.574  -0.564  -0.559  -0.555  -0.546  -0.541  -0.536  -0.521
 -0.520  -0.509  -0.504  -0.498  -0.490  -0.481  -0.473  -0.466
 -0.458  -0.455  -0.447  -0.446  -0.443  -0.414
 -- Virtual --
 -0.384  -0.323  -0.322  -0.322  -0.316  -0.315  -0.310  -0.294
 -0.285  -0.217  -0.177  -0.167  -0.118  -0.089   0.002   0.011
  0.049   0.060   0.070   0.080   0.091   0.095   0.097   0.108
  0.123   0.125   0.128   0.135   0.138   0.145   0.156   0.160
  0.162   0.176   0.189   0.197   0.202   0.206   0.215   0.220
  0.234   0.238   0.245   0.248   0.252   0.266   0.275   0.278
  0.314   0.334   0.359   0.382   0.425   0.564
 --------------------------------------------------------------
 
          Ground-State Mulliken Net Atomic Charges

     Atom                 Charge (a.u.)    Spin (a.u.)
  --------------------------------------------------------
      1 Fe                    0.652253       4.867545
      2 O                    -0.158923      -0.204260
      3 O                    -0.009636      -0.670082
      4 H                     0.091841       0.000042
      5 H                     0.110609      -0.000504
      6 C                    -0.213940      -0.004260
      7 H                     0.083364       0.000352
      8 H                     0.094347       0.000026
      9 H                     0.109677       0.000548
     10 C                    -0.133348       0.000169
     11 C                     0.028614       0.002817
     12 C                    -0.131843       0.000516
     13 H                     0.113318      -0.000245
     14 H                     0.117485       0.001775
     15 H                     0.133994      -0.007545
     16 H                     0.111855      -0.000690
     17 C                    -0.214294      -0.003508
     18 C                     0.054441      -0.062187
     19 H                     0.109045       0.001354
     20 H                     0.082476       0.000050
     21 C                    -0.139036      -0.002896
     22 C                    -0.035119       0.062442
     23 C                    -0.229704      -0.006935
     24 C                     0.065996       0.042423
     25 H                     0.118000       0.002330
     26 H                     0.120799      -0.000532
     27 H                     0.115425      -0.000958
     28 H                     0.083366      -0.000136
     29 C                    -0.262365      -0.106881
     30 H                     0.107390       0.003591
     31 C                    -0.050803      -0.074713
     32 H                     0.083951       0.000085
     33 H                     0.106200       0.003418
     34 C                     0.049918       0.026281
     35 H                     0.302492       0.000966
     36 H                     0.122137       0.010370
     37 H                     0.131603       0.000165
     38 C                    -0.010784       0.047390
     39 C                    -0.044511      -0.005561
     40 H                     0.106802      -0.002197
     41 C                    -0.057380       0.086729
     42 H                     0.155299      -0.003689
     43 H                     0.128991      -0.003604
  --------------------------------------------------------
  Sum of atomic charges =     2.000000
  Sum of spin   charges =     4.000000

 -----------------------------------------------------------------
                    Cartesian Multipole Moments
 -----------------------------------------------------------------
    Charge (ESU x 10^10)
                 9.6064
    Dipole Moment (Debye)
         X      -8.0877      Y       2.8100      Z       0.4438
       Tot       8.5734
    Quadrupole Moments (Debye-Ang)
        XX     -27.9479     XY       6.8959     YY     -48.4121
        XZ       1.5347     YZ      -0.2871     ZZ    -112.8353
    Octopole Moments (Debye-Ang^2)
       XXX    -236.6693    XXY     -87.9091    XYY    -101.5223
       YYY     104.2230    XXZ     -23.1366    XYZ       5.5500
       YYZ       8.3265    XZZ      -1.2123    YZZ      23.4883
       ZZZ      -2.3595
    Hexadecapole Moments (Debye-Ang^3)
      XXXX   -3430.2873   XXXY     469.0472   XXYY   -1085.5967
      XYYY     -59.1235   YYYY   -3136.2978   XXXZ      74.7639
      XXYZ      29.6432   XYYZ     -14.9299   YYYZ     -23.0313
      XXZZ    -984.0011   XYZZ     -39.2669   YYZZ    -683.0607
      XZZZ       1.3384   YZZZ      -5.3056   ZZZZ    -420.0408
 -----------------------------------------------------------------
 Calculating analytic gradient of the SCF energy
 Gradient of SCF Energy
            1           2           3           4           5           6
    1   0.0046983   0.3776685   0.0841836  -0.0023709  -0.0018768  -0.0086509
    2  -0.0024835  -0.3271456   0.1769601  -0.0024144  -0.0002280   0.0162787
    3   0.0023318   0.0395800   0.2208289  -0.0027750   0.0024274  -0.0233300
            7           8           9          10          11          12
    1   0.0027774  -0.0012100  -0.0036352  -0.0231784  -0.0078865  -0.0101584
    2   0.0033333   0.0014201   0.0022066   0.0030827  -0.0003176  -0.0064853
    3  -0.0007869  -0.0046776  -0.0012760  -0.0121007  -0.0055906   0.0218471
           13          14          15          16          17          18
    1  -0.0020990  -0.0016023  -0.0051072  -0.0029537   0.0132676   0.0189869
    2  -0.0057484  -0.0014211   0.0112374  -0.0000088   0.0161541   0.0727038
    3   0.0030690  -0.0059738   0.0022593  -0.0002079   0.0208289   0.0207715
           19          20          21          22          23          24
    1   0.0003757   0.0016069  -0.0026339  -0.0393896  -0.0045784   0.0355897
    2  -0.0026417   0.0041921  -0.0279403   0.0040742   0.0238969  -0.0870598
    3  -0.0050879  -0.0019215   0.0005323  -0.0077174  -0.0080193  -0.0274103
           25          26          27          28          29          30
    1  -0.0030027   0.0000607   0.0058587   0.0003616  -0.1977891   0.0037975
    2   0.0019263  -0.0094147   0.0028054  -0.0011040   0.1337256   0.0010530
    3   0.0049282  -0.0004560   0.0003908   0.0038070  -0.1750014  -0.0019896
           31          32          33          34          35          36
    1   0.0413265   0.0006863   0.0008993  -0.0428903  -0.2923727   0.0094244
    2   0.0127733  -0.0023676  -0.0003954   0.0112984   0.0015361  -0.0009943
    3  -0.0038554   0.0037964   0.0065614  -0.0079339  -0.0730759   0.0006759
           37          38          39          40          41          42
    1  -0.0008133   0.0398500  -0.0242651   0.0021575   0.0195931   0.0125217
    2   0.0106479  -0.0234536   0.0220982  -0.0110179  -0.0176941   0.0089691
    3  -0.0033583   0.0127121  -0.0093579   0.0041367   0.0073749  -0.0007015
           43
    1   0.0027724
    2  -0.0120372
    3   0.0037452
 Max gradient component =       3.777E-01
 RMS gradient           =       6.520E-02
 Gradient time:  CPU 22.38 s  wall 2.90 s
 Geometry Optimization Parameters
   NAtoms,    NIC,     NZ,  NCons,   NDum,   NFix, NCnnct, MaxDiis
       43     341       0       0       0       0       0       0


** GEOMETRY OPTIMIZATION IN DELOCALIZED INTERNAL COORDINATES **
   Searching for a Minimum

   Optimization Cycle:   1

                       Coordinates (Angstroms)
     ATOM                X               Y               Z
      1  Fe       -1.6790327831    3.9120688508   -0.1759868447
      2  O        -0.9206306281    2.2590553711    0.1367376498
      3  O        -0.8632566873    1.1641712257   -0.5349990644
      4  H         3.8492887650   -1.6152897945    1.6336431798
      5  H         4.4067018283   -2.7791028231    0.3924220750
      6  C         3.5297011320   -2.2237013646    0.7713899478
      7  H         2.8013419408   -2.9652928386    1.1412646216
      8  H         4.4848333209    0.4253209936    1.1450174858
      9  H         4.9222834430   -0.8449729293   -1.0223787493
     10  C         4.1618338141    0.8222139935    0.1658693840
     11  C         2.9256577000   -1.3482037990   -0.3484414568
     12  C         3.9703412248   -0.3182744685   -0.8261733349
     13  H         4.9605595341    1.5046909266   -0.1706266636
     14  H        -1.1570587479   -3.5733379693    1.6625169665
     15  H         0.7424444179   -2.5646702482    0.6024537176
     16  H         3.5155275472   -2.6747730325   -1.9742397905
     17  C         2.5866677752   -2.2494168884   -1.5533150055
     18  C         1.6553325138   -0.6444177581    0.1757383692
     19  H         2.9076625974    2.2841005702    1.1766506146
     20  H         1.9272934054   -3.0884183287   -1.2780807716
     21  C         2.8460127812    1.5778968663    0.3281814762
     22  C         0.5003815058   -1.5336855004    0.3184703969
     23  C        -1.6165987268   -3.5801153837    0.6585286526
     24  C         1.6423608321    0.6812257092    0.5170716860
     25  H        -0.8965090636   -4.0790282712   -0.0145501671
     26  H         0.7702883683    2.1541600538    1.8244445380
     27  H        -2.5130030960   -4.2104442391    0.7100425437
     28  H         3.6356323287    0.1014122890   -1.7947865035
     29  C         0.4463525212    1.3869307661    1.0991829321
     30  H        -0.2468811717    0.7003953207    1.6071879903
     31  C        -0.8086528174   -1.2496953373    0.0618702451
     32  H         2.0828226939   -1.6710016432   -2.3465117894
     33  H         2.6741687998    2.2182351243   -0.5642924458
     34  C        -1.9158255507   -2.1815296707    0.1910176566
     35  H        -0.1361676770    1.9225423137    0.3239672339
     36  H        -1.0765271658   -0.2535204623   -0.3021115288
     37  H        -4.3630412284   -3.5441990722    0.2353971434
     38  C        -3.1817550409   -1.7435934937   -0.1137827872
     39  C        -4.4146778740   -2.4912157135   -0.0598501990
     40  H        -3.2804435626   -0.6989120267   -0.4352350826
     41  C        -5.6281755159   -1.9659567017   -0.3570208464
     42  H        -6.5424200978   -2.5604997116   -0.3074331076
     43  H        -5.7365839440   -0.9177646316   -0.6554349325
   Point Group: c1    Number of degrees of freedom:   123


   Energy is  -2013.593031862


 Attempting to Generate Delocalized Internal Coordinates

123 Hessian modes will be used to form the next step
  Hessian Eigenvalues:
     0.002590    0.003296    0.003578    0.005278    0.008193    0.008417
     0.008556    0.010942    0.012154    0.013452    0.013860    0.015327
     0.015413    0.015487    0.016733    0.019397    0.020749    0.021364
     0.021527    0.022549    0.025875    0.027190    0.028322    0.028323
     0.029381    0.030301    0.031602    0.042804    0.044921    0.048001
     0.049644    0.051867    0.053409    0.053925    0.054166    0.055418
     0.056401    0.059574    0.064915    0.069234    0.070349    0.072885
     0.078870    0.079623    0.083790    0.097409    0.098468    0.109130
     0.121727    0.131989    0.133328    0.148946    0.159693    0.159801
     0.159958    0.159999    0.159999    0.160000    0.160000    0.160000
     0.160000    0.160000    0.160000    0.160000    0.160000    0.160000
     0.160000    0.160000    0.172335    0.187252    0.189983    0.214765
     0.220000    0.220000    0.220014    0.220078    0.228449    0.228910
     0.249764    0.249992    0.249998    0.249999    0.272046    0.278039
     0.281266    0.283125    0.288284    0.293596    0.305119    0.317806
     0.318884    0.324114    0.328747    0.330668    0.330825    0.331258
     0.331420    0.331568    0.331620    0.332061    0.332240    0.333043
     0.333197    0.333348    0.333935    0.334595    0.336835    0.339640
     0.340110    0.340794    0.342161    0.342625    0.343665    0.346183
     0.363932    0.378717    0.391910    0.442730    0.494316    0.502572
     0.521785    0.526129    0.539131

 Minimum Search - Taking Simple RFO Step
 Searching for Lamda that Minimizes Along All modes
 Value Taken    Lamda =  -0.36366614
 Calculated Step too Large.  Step scaled by  0.396030
 Step Taken.  Stepsize is  0.300000

                             Maximum     Tolerance    Cnvgd?
         Gradient           0.199502      0.000300      NO
         Displacement       0.114992      0.001200      NO
         Energy change     *********      0.000001      NO


 New Cartesian Coordinates Obtained by Inverse Iteration

 Displacement from previous Coordinates is:  2.917754
 ----------------------------------------------------------------
             Standard Nuclear Orientation (Angstroms)
    I     Atom           X                Y                Z
 ----------------------------------------------------------------
    1      Fe     -1.2812186177     4.4527495808    -0.1778976316
    2      O      -0.7356462777     2.7110412422     0.1052509671
    3      O      -0.8079681629     1.6145047402    -0.6253037059
    4      H       3.7353709519    -1.6764770915     1.6542441096
    5      H       4.2384158557    -2.8629813992     0.4087455559
    6      C       3.3897468053    -2.2620030885     0.7846076742
    7      H       2.6166300960    -2.9646383691     1.1434185972
    8      H       4.5032833694     0.3209457642     1.1873937591
    9      H       4.8829575129    -0.9564573659    -0.9914598425
   10      C       4.2177325726     0.7477360426     0.2074753005
   11      C       2.8439100137    -1.3425112008    -0.3438994434
   12      C       3.9625004007    -0.3715762856    -0.8032823146
   13      H       5.0637645571     1.3815010603    -0.1142833143
   14      H      -1.0802269987    -3.6334069783     1.6248874755
   15      H       0.7078496626    -2.4990966980     0.5540999344
   16      H       3.3680905340    -2.6972751313    -1.9790925109
   17      C       2.4603519019    -2.2207012145    -1.5651173260
   18      C       1.5973218376    -0.5705881194     0.1731790285
   19      H       3.0482467137     2.2853758290     1.2199972632
   20      H       1.7496879964    -3.0221465188    -1.3002531202
   21      C       2.9486810733     1.5906729304     0.3634758397
   22      C       0.4323308431    -1.4681355916     0.2883232418
   23      C      -1.5482381187    -3.6587797556     0.6230915543
   24      C       1.6695045759     0.7825237879     0.5316257920
   25      H      -0.8026312458    -4.1006479652    -0.0648012420
   26      H       0.9610931363     2.3400815876     1.8397917678
   27      H      -2.4028540377    -4.3478005294     0.6737176747
   28      H       3.6675291171     0.0758554865    -1.7737241712
   29      C       0.5588394353     1.6181085010     1.1042178184
   30      H      -0.2145072408     1.0108474917     1.5999622393
   31      C      -0.9046266101    -1.2580141867     0.0452016815
   32      H       1.9989574905    -1.6087833560    -2.3607937968
   33      H       2.8348701669     2.2473203049    -0.5285721088
   34      C      -1.9457617063    -2.2691244638     0.1741654848
   35      H       0.0404817824     2.2535257319     0.3075820360
   36      H      -1.2475249219    -0.2784448496    -0.3036495798
   37      H      -4.3073299318    -3.7985149804     0.2235377448
   38      C      -3.2543489667    -1.9096799699    -0.1165278528
   39      C      -4.4344081121    -2.7450934788    -0.0593890779
   40      H      -3.4292090715    -0.8674749100    -0.4254803256
   41      C      -5.6917411078    -2.2952024584    -0.3417657571
   42      H      -6.5665799204    -2.9538622229    -0.2911751161
   43      H      -5.8750779419    -1.2499856289    -0.6277088672
 ----------------------------------------------------------------
 Molecular Point Group                 C1    NOp =  1
 Largest Abelian Subgroup              C1    NOp =  1
 Nuclear Repulsion Energy =  1688.7559343362 hartrees
 There are       82 alpha and       78 beta electrons
 Applying Cartesian multipole field
    Component          Value
    ---------          -----
     (2,0,0)        1.00000E-12
     (0,2,0)        2.00000E-11
     (0,0,2)       -3.00000E-11
 Nucleus-field energy     =     0.0000000737 hartrees
 Requested basis set is STO-3G
 There are 65 shells and 132 basis functions
 A cutoff of  1.0D-12 yielded   1564 shell pairs
 There are      6869 function pairs (      6935 Cartesian)
 Smallest overlap matrix eigenvalue = 1.73E-01
 Guess MOs from SCF MO coefficient file

 -----------------------------------------------------------------------
  General SCF calculation program by
  Eric Jon Sundstrom, Paul Horn, Yuezhi Mao, Dmitri Zuev, Alec White,
  David Stuck, Shaama M.S., Shane Yost, Joonho Lee, David Small,
  Daniel Levine, Susi Lehtola, Hugh Burton, Evgeny Epifanovsky
 -----------------------------------------------------------------------
 Exchange:  B88      Correlation:  LYP
 Using SG-1 standard quadrature grid
 using 8 threads for integral computing
 -------------------------------------------------------
 OpenMP Integral computing Module                
 Release: version 1.0, May 2013, Q-Chem Inc. Pittsburgh 
 -------------------------------------------------------
 -------------------------------------------------------
 OpenMP BLAS3 based DFT computing Module                
 Release: version 1.0, May 2013, Q-Chem Inc. Pittsburgh 
 -------------------------------------------------------
 A unrestricted SCF calculation will be
 performed using DIIS, GDM
 SCF converges when RMS gradient is below 1.0e-08
 ---------------------------------------
  Cycle       Energy         DIIS error
 ---------------------------------------
    1   -2013.6574814628      1.29e-03  
    2   -2013.6876422453      6.41e-04  Done DIIS. Switching to GDM
 ---------------------------------------
  Cycle       Energy        RMS Gradient
 ---------------------------------------
    1   -2013.6876422453      8.22e-02   Normal BFGS step
    2   -2013.6463133155      2.47e-01  Line search: overstep
    3   -2013.6958448029      2.52e-02   Normal BFGS step
    4   -2013.6946786286      4.80e-02  Line search: overstep
    5   -2013.6965760198      1.64e-02   Normal BFGS step
    6   -2013.6962197373      2.98e-02  Line search: overstep
    7   -2013.6967892915      8.04e-03   Normal BFGS step
    8   -2013.6968122582      1.08e-02   Normal BFGS step
    9   -2013.6968872744      9.53e-03   Normal BFGS step
   10   -2013.6967638346      8.39e-03  Line search: overstep
   11   -2013.6969256798      3.71e-03   Normal BFGS step
   12   -2013.6969279664      1.39e-03   Normal BFGS step
   13   -2013.6969376319      9.96e-04   Normal BFGS step
   14   -2013.6969377181      1.09e-03   Normal BFGS step
   15   -2013.6969388662      4.54e-04   Normal BFGS step
   16   -2013.6969393120      2.72e-04   Normal BFGS step
   17   -2013.6969396708      1.14e-04   Normal BFGS step
   18   -2013.6969397096      9.97e-05   Normal BFGS step
   19   -2013.6969397761      5.15e-05   Normal BFGS step
   20   -2013.6969397768      4.71e-05   Normal BFGS step
   21   -2013.6969397832      1.80e-05   Normal BFGS step
   22   -2013.6969397830      2.18e-05   Normal BFGS step
   23   -2013.6969397846      6.91e-06   Normal BFGS step
   24   -2013.6969397846      7.16e-06   Normal BFGS step
   25   -2013.6969397848      4.20e-06   Normal BFGS step
   26   -2013.6969397848      2.83e-06   Normal BFGS step
   27   -2013.6969397849      3.03e-06   Normal BFGS step
   28   -2013.6969397849      4.65e-06   Normal BFGS step
   29   -2013.6969397849      1.70e-06   Normal BFGS step
   30   -2013.6969397849      1.85e-06   Normal BFGS step
   31   -2013.6969397849      9.25e-07   Normal BFGS step
   32   -2013.6969397849      1.73e-06   Normal BFGS step
   33   -2013.6969397849      8.06e-07   Normal BFGS step
   34   -2013.6969397849      1.28e-06   Normal BFGS step
   35   -2013.6969397849      2.78e-07   Normal BFGS step
   36   -2013.6969397849      2.64e-07   Normal BFGS step
   37   -2013.6969397849      1.44e-07   Normal BFGS step
   38   -2013.6969397849      1.98e-07   Normal BFGS step
   39   -2013.6969397849      4.62e-08   Normal BFGS step
   40   -2013.6969397849      4.73e-08   Normal BFGS step
   41   -2013.6969397849      6.37e-09  Convergence criterion met
 ---------------------------------------
 SCF time:   CPU 293.85s  wall 36.00s 
<S^2> =          6.999061208
 SCF   energy in the final basis set =    -2013.6969397849
 Total energy in the final basis set =    -2013.6969397849
 
 --------------------------------------------------------------
 
                    Orbital Energies (a.u.)
 --------------------------------------------------------------
 
 Alpha MOs
 -- Occupied --
******* -29.662 -26.216 -26.216 -26.211 -19.037 -18.922 -10.073
-10.068 -10.065 -10.061 -10.060 -10.056 -10.036 -10.034 -10.019
-10.011 -10.010 -10.001  -9.972  -9.968  -9.962  -9.961  -3.861
 -2.702  -2.701  -2.689  -1.416  -1.023  -1.004  -0.984  -0.944
 -0.932  -0.905  -0.889  -0.865  -0.839  -0.812  -0.795  -0.791
 -0.778  -0.738  -0.721  -0.712  -0.704  -0.688  -0.673  -0.653
 -0.644  -0.628  -0.614  -0.610  -0.604  -0.590  -0.580  -0.579
 -0.569  -0.560  -0.554  -0.550  -0.543  -0.535  -0.532  -0.531
 -0.531  -0.526  -0.521  -0.519  -0.517  -0.516  -0.507  -0.501
 -0.494  -0.487  -0.478  -0.464  -0.453  -0.452  -0.444  -0.432
 -0.413  -0.405
 -- Virtual --
 -0.382  -0.373  -0.309  -0.292  -0.288  -0.220  -0.178  -0.169
 -0.122  -0.088  -0.005   0.012   0.053   0.057   0.061   0.079
  0.081   0.092   0.094   0.101   0.111   0.122   0.127   0.136
  0.141   0.143   0.151   0.160   0.165   0.172   0.180   0.191
  0.196   0.206   0.212   0.215   0.231   0.234   0.238   0.244
  0.250   0.265   0.268   0.278   0.304   0.315   0.350   0.369
  0.409   0.487
 
 Beta MOs
 -- Occupied --
******* -29.621 -26.182 -26.182 -26.178 -19.041 -18.933 -10.072
-10.069 -10.064 -10.061 -10.060 -10.055 -10.035 -10.034 -10.019
-10.012 -10.010 -10.001  -9.972  -9.968  -9.962  -9.961  -3.641
 -2.478  -2.477  -2.476  -1.434  -1.054  -1.004  -0.983  -0.944
 -0.933  -0.904  -0.891  -0.865  -0.838  -0.813  -0.795  -0.791
 -0.779  -0.738  -0.724  -0.717  -0.705  -0.699  -0.677  -0.670
 -0.643  -0.631  -0.618  -0.610  -0.604  -0.590  -0.579  -0.578
 -0.569  -0.560  -0.554  -0.550  -0.543  -0.536  -0.531  -0.518
 -0.516  -0.504  -0.501  -0.494  -0.487  -0.476  -0.469  -0.466
 -0.453  -0.453  -0.444  -0.436  -0.433  -0.410
 -- Virtual --
 -0.379  -0.314  -0.313  -0.313  -0.307  -0.306  -0.302  -0.285
 -0.282  -0.218  -0.177  -0.167  -0.118  -0.086  -0.005   0.011
  0.053   0.056   0.062   0.079   0.081   0.093   0.094   0.101
  0.111   0.124   0.127   0.135   0.141   0.142   0.151   0.160
  0.165   0.171   0.180   0.191   0.196   0.206   0.212   0.214
  0.231   0.234   0.238   0.244   0.250   0.265   0.268   0.278
  0.304   0.315   0.351   0.369   0.410   0.482
 --------------------------------------------------------------
 
          Ground-State Mulliken Net Atomic Charges

     Atom                 Charge (a.u.)    Spin (a.u.)
  --------------------------------------------------------
      1 Fe                    0.644506       4.867871
      2 O                    -0.153064      -0.218104
      3 O                     0.015530      -0.749761
      4 H                     0.091820       0.000102
      5 H                     0.109688      -0.000358
      6 C                    -0.213111      -0.004876
      7 H                     0.081142       0.000358
      8 H                     0.093025       0.000047
      9 H                     0.108061       0.000478
     10 C                    -0.132637       0.000141
     11 C                     0.028602       0.003166
     12 C                    -0.131557       0.000371
     13 H                     0.111351      -0.000256
     14 H                     0.116705       0.002205
     15 H                     0.131017      -0.004505
     16 H                     0.110461      -0.000863
     17 C                    -0.214038      -0.003723
     18 C                     0.054842      -0.073496
     19 H                     0.107649       0.001366
     20 H                     0.080170       0.000106
     21 C                    -0.137551      -0.002826
     22 C                    -0.032709       0.066986
     23 C                    -0.228285      -0.003203
     24 C                     0.068384       0.046945
     25 H                     0.116016       0.002578
     26 H                     0.116908       0.000791
     27 H                     0.114495      -0.000162
     28 H                     0.082842      -0.000155
     29 C                    -0.260354      -0.101893
     30 H                     0.102822       0.003162
     31 C                    -0.035797      -0.026124
     32 H                     0.084131       0.000073
     33 H                     0.104570       0.003644
     34 C                     0.052501       0.038277
     35 H                     0.284128       0.001945
     36 H                     0.100011       0.003764
     37 H                     0.130883       0.000219
     38 C                    -0.006782       0.056838
     39 C                    -0.042945      -0.007167
     40 H                     0.113169      -0.002445
     41 C                    -0.053116       0.107573
     42 H                     0.154804      -0.004600
     43 H                     0.131714      -0.004490
  --------------------------------------------------------
  Sum of atomic charges =     2.000000
  Sum of spin   charges =     4.000000

 -----------------------------------------------------------------
                    Cartesian Multipole Moments
 -----------------------------------------------------------------
    Charge (ESU x 10^10)
                 9.6064
    Dipole Moment (Debye)
         X      -7.6394      Y       3.6093      Z       0.2739
       Tot       8.4535
    Quadrupole Moments (Debye-Ang)
        XX     -28.4256     XY      13.1069     YY     -34.4915
        XZ       2.1622     YZ      -0.2371     ZZ    -112.9099
    Octopole Moments (Debye-Ang^2)
       XXX    -268.7758    XXY    -122.3659    XYY    -123.1551
       YYY     122.2365    XXZ     -22.1819    XYZ       4.8804
       YYZ       6.5473    XZZ      -6.1620    YZZ      15.2221
       ZZZ      -1.5901
    Hexadecapole Moments (Debye-Ang^3)
      XXXX   -3234.5230   XXXY     487.7686   XXYY   -1108.7080
      XYYY    -153.2929   YYYY   -3525.3369   XXXZ      74.4633
      XXYZ      35.5869   XYYZ     -11.4372   YYYZ     -28.6192
      XXZZ    -966.0484   XYZZ     -82.0491   YYZZ    -798.9630
      XZZZ     -10.2598   YZZZ      -8.0033   ZZZZ    -422.3852
 -----------------------------------------------------------------
 Calculating analytic gradient of the SCF energy
 Gradient of SCF Energy
            1           2           3           4           5           6
    1   0.0043672   0.2427200   0.0933601  -0.0019168  -0.0015723  -0.0059333
    2  -0.0014905  -0.2629024   0.1310443  -0.0019129  -0.0003670   0.0137146
    3   0.0026179   0.0435829   0.1597380  -0.0019717   0.0021959  -0.0189433
            7           8           9          10          11          12
    1   0.0019402  -0.0006899  -0.0025379  -0.0195148  -0.0089550  -0.0085925
    2   0.0026341   0.0011887   0.0022328   0.0043987  -0.0004634  -0.0048727
    3  -0.0005364  -0.0034676  -0.0013069  -0.0107525  -0.0056134   0.0188554
           13          14          15          16          17          18
    1  -0.0015206  -0.0007106  -0.0041679  -0.0025244   0.0107401   0.0234138
    2  -0.0045742  -0.0011921   0.0076478  -0.0000176   0.0120304   0.0497824
    3   0.0026132  -0.0048204   0.0030907  -0.0002746   0.0171781   0.0151386
           19          20          21          22          23          24
    1   0.0002909   0.0009321  -0.0066967  -0.0360577  -0.0044163   0.0274062
    2  -0.0013950   0.0033738  -0.0213078  -0.0045093   0.0186247  -0.0644618
    3  -0.0038272  -0.0010617   0.0023432  -0.0103385  -0.0066503  -0.0184890
           25          26          27          28          29          30
    1  -0.0021459  -0.0008162   0.0045198   0.0002525  -0.1379039   0.0066415
    2   0.0010864  -0.0067697   0.0023720  -0.0010827   0.1309748   0.0000949
    3   0.0043178   0.0006684   0.0002235   0.0027542  -0.1331618   0.0013430
           31          32          33          34          35          36
    1   0.0380097   0.0001315   0.0010887  -0.0366949  -0.2145632   0.0026757
    2  -0.0091357  -0.0020885   0.0001419   0.0064610   0.0296532  -0.0131216
    3   0.0002210   0.0028141   0.0053472  -0.0056590  -0.0727261   0.0037038
           37          38          39          40          41          42
    1  -0.0009525   0.0330427  -0.0207106   0.0018650   0.0145499   0.0089678
    2   0.0080711  -0.0166239   0.0162287  -0.0088553  -0.0131790   0.0078840
    3  -0.0024886   0.0100081  -0.0070834   0.0029821   0.0053197  -0.0006292
           43
    1   0.0026785
    2  -0.0093172
    3   0.0027447
 Max gradient component =       2.629E-01
 RMS gradient           =       4.879E-02
 Gradient time:  CPU 21.55 s  wall 2.77 s
 Geometry Optimization Parameters
   NAtoms,    NIC,     NZ,  NCons,   NDum,   NFix, NCnnct, MaxDiis
       43     341       0       0       0       0       0       0

 Cartesian Hessian Update
 Hessian Updated using BFGS Update


** GEOMETRY OPTIMIZATION IN DELOCALIZED INTERNAL COORDINATES **
   Searching for a Minimum

   Optimization Cycle:   2

                       Coordinates (Angstroms)
     ATOM                X               Y               Z
      1  Fe       -1.2812186177    4.4527495808   -0.1778976316
      2  O        -0.7356462777    2.7110412422    0.1052509671
      3  O        -0.8079681629    1.6145047402   -0.6253037059
      4  H         3.7353709519   -1.6764770915    1.6542441096
      5  H         4.2384158557   -2.8629813992    0.4087455559
      6  C         3.3897468053   -2.2620030885    0.7846076742
      7  H         2.6166300960   -2.9646383691    1.1434185972
      8  H         4.5032833694    0.3209457642    1.1873937591
      9  H         4.8829575129   -0.9564573659   -0.9914598425
     10  C         4.2177325726    0.7477360426    0.2074753005
     11  C         2.8439100137   -1.3425112008   -0.3438994434
     12  C         3.9625004007   -0.3715762856   -0.8032823146
     13  H         5.0637645571    1.3815010603   -0.1142833143
     14  H        -1.0802269987   -3.6334069783    1.6248874755
     15  H         0.7078496626   -2.4990966980    0.5540999344
     16  H         3.3680905340   -2.6972751313   -1.9790925109
     17  C         2.4603519019   -2.2207012145   -1.5651173260
     18  C         1.5973218376   -0.5705881194    0.1731790285
     19  H         3.0482467137    2.2853758290    1.2199972632
     20  H         1.7496879964   -3.0221465188   -1.3002531202
     21  C         2.9486810733    1.5906729304    0.3634758397
     22  C         0.4323308431   -1.4681355916    0.2883232418
     23  C        -1.5482381187   -3.6587797556    0.6230915543
     24  C         1.6695045759    0.7825237879    0.5316257920
     25  H        -0.8026312458   -4.1006479652   -0.0648012420
     26  H         0.9610931363    2.3400815876    1.8397917678
     27  H        -2.4028540377   -4.3478005294    0.6737176747
     28  H         3.6675291171    0.0758554865   -1.7737241712
     29  C         0.5588394353    1.6181085010    1.1042178184
     30  H        -0.2145072408    1.0108474917    1.5999622393
     31  C        -0.9046266101   -1.2580141867    0.0452016815
     32  H         1.9989574905   -1.6087833560   -2.3607937968
     33  H         2.8348701669    2.2473203049   -0.5285721088
     34  C        -1.9457617063   -2.2691244638    0.1741654848
     35  H         0.0404817824    2.2535257319    0.3075820360
     36  H        -1.2475249219   -0.2784448496   -0.3036495798
     37  H        -4.3073299318   -3.7985149804    0.2235377448
     38  C        -3.2543489667   -1.9096799699   -0.1165278528
     39  C        -4.4344081121   -2.7450934788   -0.0593890779
     40  H        -3.4292090715   -0.8674749100   -0.4254803256
     41  C        -5.6917411078   -2.2952024584   -0.3417657571
     42  H        -6.5665799204   -2.9538622229   -0.2911751161
     43  H        -5.8750779419   -1.2499856289   -0.6277088672
   Point Group: c1    Number of degrees of freedom:   123


   Energy is  -2013.696939785

 Hessian Updated using BFGS Update

114 Hessian modes will be used to form the next step
  Hessian Eigenvalues:
     0.002595    0.003296    0.003578    0.005278    0.008193    0.008556
     0.008752    0.010983    0.012239    0.013454    0.013851    0.015410
     0.015486    0.015532    0.016733    0.019424    0.020751    0.021364
     0.021527    0.022549    0.025875    0.027191    0.028322    0.028323
     0.029477    0.030443    0.031672    0.042809    0.044919    0.047995
     0.049644    0.051872    0.053406    0.053924    0.054166    0.055418
     0.056401    0.059571    0.064672    0.069258    0.070349    0.072883
     0.078911    0.079614    0.083790    0.097410    0.098483    0.108916
     0.121713    0.131625    0.133177    0.147636    0.149452    0.159806
     0.159869    0.159999    0.159999    0.160000    0.160023    0.162910
     0.187209    0.188270    0.190895    0.219984    0.220000    0.220013
     0.228443    0.228662    0.229317    0.249841    0.249941    0.249998
     0.271196    0.277723    0.279408    0.282476    0.288193    0.291624
     0.302861    0.316738    0.318080    0.324067    0.328714    0.330562
     0.330795    0.331235    0.331378    0.331471    0.331593    0.331968
     0.332192    0.332991    0.333159    0.333299    0.333903    0.334555
     0.336771    0.339012    0.340026    0.340547    0.341731    0.342487
     0.343116    0.345709    0.358083    0.376975    0.386025    0.394521
     0.442680    0.483725    0.503729    0.521802    0.538895    1.200672

 Minimum Search - Taking Simple RFO Step
 Searching for Lamda that Minimizes Along All modes
 Value Taken    Lamda =  -0.23758133
 Calculated Step too Large.  Step scaled by  0.383984
 Step Taken.  Stepsize is  0.300000

                             Maximum     Tolerance    Cnvgd?
         Gradient           0.149455      0.000300      NO
         Displacement       0.127015      0.001200      NO
         Energy change     -0.103908      0.000001      NO


 New Cartesian Coordinates Obtained by Inverse Iteration

 Displacement from previous Coordinates is:  1.298278
 ----------------------------------------------------------------
             Standard Nuclear Orientation (Angstroms)
    I     Atom           X                Y                Z
 ----------------------------------------------------------------
    1      Fe     -1.5429401191     4.2937123343    -0.2112079580
    2      O      -0.8955520360     2.5872721220     0.0827860764
    3      O      -0.9203852697     1.4522778580    -0.6720382173
    4      H       3.8222088601    -1.6774437071     1.6579043180
    5      H       4.3493467098    -2.8479614547     0.4037510344
    6      C       3.4863251798    -2.2721135240     0.7886938185
    7      H       2.7344468885    -2.9977122573     1.1517030773
    8      H       4.5392493605     0.3746022582     1.1783917978
    9      H       4.9384501993    -0.9074748809    -1.0062842825
   10      C       4.2347717679     0.7906894807     0.1975268448
   11      C       2.9054132858    -1.3590857775    -0.3455256634
   12      C       4.0018301182    -0.3472720950    -0.8139874767
   13      H       5.0616831010     1.4479565315    -0.1342379115
   14      H      -1.1254977785    -3.6531730442     1.6384283304
   15      H       0.7331479374    -2.5408186814     0.5654937684
   16      H       3.4573818746    -2.7029610231    -1.9929024246
   17      C       2.5363236560    -2.2529895727    -1.5759984663
   18      C       1.6331336087    -0.6122206264     0.1812517913
   19      H       3.0265963370     2.3091181793     1.2193000357
   20      H       1.8487847645    -3.0759137633    -1.3093488489
   21      C       2.9369708847     1.6096326727     0.3631994996
   22      C       0.4679606237    -1.5022886142     0.3040533625
   23      C      -1.5915813920    -3.6594262754     0.6329101110
   24      C       1.6718159780     0.7613996513     0.5460662941
   25      H      -0.8578489515    -4.1205867144    -0.0586896388
   26      H       0.8951650978     2.2792170922     1.8547542307
   27      H      -2.4706077676    -4.3215158099     0.6772069866
   28      H       3.6880017184     0.0907870068    -1.7844155264
   29      C       0.5287605781     1.5301092046     1.1245718713
   30      H      -0.2129834740     0.8851059073     1.6255345751
   31      C      -0.8801507634    -1.2551148534     0.0620085295
   32      H       2.0551444350    -1.6519104181    -2.3704054347
   33      H       2.7971945360     2.2609746373    -0.5316919641
   34      C      -1.9464832438    -2.2454128194     0.1874959336
   35      H      -0.0437189367     2.1472368557     0.3022515757
   36      H      -1.1965566075    -0.2573806374    -0.2837014632
   37      H      -4.3680528538    -3.7087957143     0.2248370529
   38      C      -3.2594860647    -1.8397191981    -0.1076381648
   39      C      -4.4642352769    -2.6469705128    -0.0547715898
   40      H      -3.4053875680    -0.7873040427    -0.4135475081
   41      C      -5.7165036545    -2.1511620039    -0.3409077982
   42      H      -6.6154286987    -2.7869190127    -0.2950879448
   43      H      -5.8684576328    -1.0950584844    -0.6239171979
 ----------------------------------------------------------------
 Molecular Point Group                 C1    NOp =  1
 Largest Abelian Subgroup              C1    NOp =  1
 Nuclear Repulsion Energy =  1681.7690207078 hartrees
 There are       82 alpha and       78 beta electrons
 Applying Cartesian multipole field
    Component          Value
    ---------          -----
     (2,0,0)        1.00000E-12
     (0,2,0)        2.00000E-11
     (0,0,2)       -3.00000E-11
 Nucleus-field energy     =     0.0000000697 hartrees
 Requested basis set is STO-3G
 There are 65 shells and 132 basis functions
 A cutoff of  1.0D-12 yielded   1568 shell pairs
 There are      6907 function pairs (      6974 Cartesian)
 Smallest overlap matrix eigenvalue = 1.93E-01
 Guess MOs from SCF MO coefficient file

 -----------------------------------------------------------------------
  General SCF calculation program by
  Eric Jon Sundstrom, Paul Horn, Yuezhi Mao, Dmitri Zuev, Alec White,
  David Stuck, Shaama M.S., Shane Yost, Joonho Lee, David Small,
  Daniel Levine, Susi Lehtola, Hugh Burton, Evgeny Epifanovsky
 -----------------------------------------------------------------------
 Exchange:  B88      Correlation:  LYP
 Using SG-1 standard quadrature grid
 using 8 threads for integral computing
 -------------------------------------------------------
 OpenMP Integral computing Module                
 Release: version 1.0, May 2013, Q-Chem Inc. Pittsburgh 
 -------------------------------------------------------
 -------------------------------------------------------
 OpenMP BLAS3 based DFT computing Module                
 Release: version 1.0, May 2013, Q-Chem Inc. Pittsburgh 
 -------------------------------------------------------
 A unrestricted SCF calculation will be
 performed using DIIS, GDM
 SCF converges when RMS gradient is below 1.0e-08
 ---------------------------------------
  Cycle       Energy         DIIS error
 ---------------------------------------
    1   -2013.7647715546      6.02e-04  
    2   -2013.7713104456      2.45e-04  Done DIIS. Switching to GDM
 ---------------------------------------
  Cycle       Energy        RMS Gradient
 ---------------------------------------
    1   -2013.7713104456      4.13e-02   Normal BFGS step
    2   -2013.7623992939      1.54e-01  Line search: overstep
    3   -2013.7723535589      6.83e-03   Normal BFGS step
    4   -2013.7717356041      2.68e-02  Line search: overstep
    5   -2013.7724613627      4.27e-03   Normal BFGS step
    6   -2013.7724424599      5.99e-03  Line search: overstep
    7   -2013.7724783321      1.94e-03   Normal BFGS step
    8   -2013.7724782040      1.90e-03   Normal BFGS step
    9   -2013.7724816318      2.15e-03   Normal BFGS step
   10   -2013.7724807518      1.91e-03  Line search: overstep
   11   -2013.7724856662      9.55e-04   Normal BFGS step
   12   -2013.7724864831      5.55e-04   Normal BFGS step
   13   -2013.7724876475      3.85e-04   Normal BFGS step
   14   -2013.7724879388      2.13e-04   Normal BFGS step
   15   -2013.7724881762      2.69e-04   Normal BFGS step
   16   -2013.7724882296      2.71e-04   Normal BFGS step
   17   -2013.7724883064      1.23e-04   Normal BFGS step
   18   -2013.7724883470      6.14e-05   Normal BFGS step
   19   -2013.7724883574      5.21e-05   Normal BFGS step
   20   -2013.7724883649      3.18e-05   Normal BFGS step
   21   -2013.7724883674      2.30e-05   Normal BFGS step
   22   -2013.7724883695      1.43e-05   Normal BFGS step
   23   -2013.7724883702      1.32e-05   Normal BFGS step
   24   -2013.7724883710      4.93e-06   Normal BFGS step
   25   -2013.7724883711      3.06e-06   Normal BFGS step
   26   -2013.7724883712      2.18e-06   Normal BFGS step
   27   -2013.7724883712      6.58e-06   Normal BFGS step
   28   -2013.7724883712      6.85e-06   Normal BFGS step
   29   -2013.7724883712      1.10e-06   Normal BFGS step
   30   -2013.7724883712      1.23e-06   Normal BFGS step
   31   -2013.7724883712      3.66e-07   Normal BFGS step
   32   -2013.7724883712      4.03e-07   Normal BFGS step
   33   -2013.7724883712      4.75e-07   Normal BFGS step
   34   -2013.7724883712      3.93e-07   Normal BFGS step
   35   -2013.7724883712      3.05e-07   Normal BFGS step
   36   -2013.7724883712      1.41e-07   Normal BFGS step
   37   -2013.7724883712      9.14e-08   Normal BFGS step
   38   -2013.7724883712      3.43e-08   Normal BFGS step
   39   -2013.7724883712      4.45e-08   Normal BFGS step
   40   -2013.7724883712      3.74e-08   Normal BFGS step
   41   -2013.7724883712      1.59e-08   Normal BFGS step
   42   -2013.7724883712      8.09e-09  Convergence criterion met
 ---------------------------------------
 SCF time:   CPU 310.58s  wall 39.00s 
<S^2> =          6.981467732
 SCF   energy in the final basis set =    -2013.7724883712
 Total energy in the final basis set =    -2013.7724883712
 
 --------------------------------------------------------------
 
                    Orbital Energies (a.u.)
 --------------------------------------------------------------
 
 Alpha MOs
 -- Occupied --
******* -29.660 -26.214 -26.213 -26.208 -19.015 -18.916 -10.075
-10.068 -10.066 -10.065 -10.060 -10.057 -10.040 -10.037 -10.019
-10.010 -10.007 -10.003  -9.973  -9.968  -9.962  -9.961  -3.858
 -2.699  -2.698  -2.686  -1.364  -1.014  -1.000  -0.980  -0.940
 -0.924  -0.902  -0.877  -0.858  -0.838  -0.807  -0.792  -0.788
 -0.770  -0.736  -0.721  -0.711  -0.704  -0.680  -0.668  -0.642
 -0.637  -0.626  -0.610  -0.607  -0.601  -0.588  -0.579  -0.577
 -0.565  -0.558  -0.554  -0.549  -0.543  -0.534  -0.531  -0.528
 -0.528  -0.523  -0.521  -0.517  -0.515  -0.514  -0.506  -0.500
 -0.493  -0.486  -0.477  -0.464  -0.453  -0.452  -0.444  -0.429
 -0.413  -0.403
 -- Virtual --
 -0.382  -0.373  -0.308  -0.293  -0.288  -0.224  -0.189  -0.174
 -0.129  -0.101  -0.003   0.011   0.046   0.055   0.057   0.073
  0.078   0.082   0.092   0.096   0.105   0.113   0.123   0.131
  0.133   0.141   0.146   0.157   0.161   0.169   0.177   0.188
  0.193   0.202   0.207   0.212   0.223   0.227   0.231   0.237
  0.243   0.258   0.261   0.273   0.290   0.305   0.335   0.351
  0.388   0.403
 
 Beta MOs
 -- Occupied --
******* -29.618 -26.180 -26.179 -26.176 -19.018 -18.927 -10.074
-10.069 -10.066 -10.064 -10.061 -10.056 -10.039 -10.037 -10.019
-10.011 -10.008 -10.003  -9.973  -9.968  -9.962  -9.961  -3.638
 -2.475  -2.474  -2.473  -1.382  -1.046  -1.000  -0.980  -0.939
 -0.925  -0.901  -0.878  -0.859  -0.837  -0.807  -0.792  -0.788
 -0.772  -0.736  -0.724  -0.714  -0.704  -0.686  -0.673  -0.653
 -0.642  -0.630  -0.616  -0.607  -0.601  -0.589  -0.578  -0.577
 -0.566  -0.558  -0.553  -0.549  -0.543  -0.535  -0.530  -0.520
 -0.515  -0.504  -0.501  -0.493  -0.486  -0.476  -0.467  -0.465
 -0.454  -0.452  -0.443  -0.433  -0.432  -0.411
 -- Virtual --
 -0.378  -0.312  -0.310  -0.310  -0.305  -0.303  -0.301  -0.287
 -0.280  -0.223  -0.193  -0.172  -0.125  -0.092  -0.003   0.011
  0.046   0.054   0.057   0.073   0.077   0.084   0.091   0.096
  0.104   0.115   0.123   0.130   0.134   0.141   0.146   0.158
  0.161   0.169   0.177   0.188   0.193   0.202   0.207   0.211
  0.223   0.227   0.232   0.237   0.243   0.258   0.261   0.273
  0.290   0.305   0.335   0.351   0.388   0.400
 --------------------------------------------------------------
 
          Ground-State Mulliken Net Atomic Charges

     Atom                 Charge (a.u.)    Spin (a.u.)
  --------------------------------------------------------
      1 Fe                    0.633478       4.869460
      2 O                    -0.148136      -0.209151
      3 O                     0.016771      -0.745996
      4 H                     0.091796       0.000082
      5 H                     0.109630      -0.000339
      6 C                    -0.212414      -0.004163
      7 H                     0.081981       0.000306
      8 H                     0.092936       0.000040
      9 H                     0.107872       0.000435
     10 C                    -0.131041       0.000246
     11 C                     0.029855       0.002915
     12 C                    -0.130909       0.000363
     13 H                     0.111207      -0.000193
     14 H                     0.116808       0.001652
     15 H                     0.131739      -0.004933
     16 H                     0.110205      -0.000619
     17 C                    -0.213423      -0.003029
     18 C                     0.055653      -0.061606
     19 H                     0.109319       0.001206
     20 H                     0.080746       0.000078
     21 C                    -0.136329      -0.002654
     22 C                    -0.032203       0.057847
     23 C                    -0.225683      -0.003950
     24 C                     0.073966       0.045080
     25 H                     0.116243       0.002036
     26 H                     0.116142       0.001630
     27 H                     0.114128      -0.000328
     28 H                     0.082817      -0.000126
     29 C                    -0.259369      -0.075239
     30 H                     0.099982       0.002107
     31 C                    -0.035539      -0.039647
     32 H                     0.083849       0.000058
     33 H                     0.106828       0.003207
     34 C                     0.052357       0.029015
     35 H                     0.262949       0.003438
     36 H                     0.102057       0.006979
     37 H                     0.131447       0.000285
     38 C                    -0.004475       0.049750
     39 C                    -0.041961      -0.008740
     40 H                     0.111681      -0.002184
     41 C                    -0.049244       0.092555
     42 H                     0.154990      -0.003983
     43 H                     0.131294      -0.003890
  --------------------------------------------------------
  Sum of atomic charges =     2.000000
  Sum of spin   charges =     4.000000

 -----------------------------------------------------------------
                    Cartesian Multipole Moments
 -----------------------------------------------------------------
    Charge (ESU x 10^10)
                 9.6064
    Dipole Moment (Debye)
         X      -8.1607      Y       2.8464      Z       0.1757
       Tot       8.6446
    Quadrupole Moments (Debye-Ang)
        XX     -24.3044     XY      10.8195     YY     -39.6380
        XZ       2.3636     YZ      -0.8697     ZZ    -112.7353
    Octopole Moments (Debye-Ang^2)
       XXX    -263.6335    XXY    -112.4448    XYY    -116.9826
       YYY     108.5986    XXZ     -22.5271    XYZ       6.2092
       YYZ       6.0467    XZZ      -1.7888    YZZ      17.4623
       ZZZ      -0.4600
    Hexadecapole Moments (Debye-Ang^3)
      XXXX   -3309.3661   XXXY     541.5028   XXYY   -1110.0147
      XYYY     -91.3190   YYYY   -3437.8684   XXXZ      74.4735
      XXYZ      35.4621   XYYZ     -11.3844   YYYZ     -25.5219
      XXZZ    -995.1017   XYZZ     -55.3569   YYZZ    -764.8692
      XZZZ     -10.8921   YZZZ       1.9137   ZZZZ    -430.0244
 -----------------------------------------------------------------
 Calculating analytic gradient of the SCF energy
 Gradient of SCF Energy
            1           2           3           4           5           6
    1   0.0023120   0.1762157   0.0677871  -0.0015007  -0.0010709  -0.0036491
    2   0.0022636  -0.1582838   0.0738839  -0.0018595  -0.0007493   0.0097351
    3   0.0019092   0.0458613   0.1100481  -0.0008846   0.0021359  -0.0144855
            7           8           9          10          11          12
    1   0.0018524  -0.0001586  -0.0018164  -0.0139665  -0.0071628  -0.0044863
    2   0.0017183   0.0007794   0.0016670   0.0050513  -0.0008064  -0.0050208
    3   0.0002166  -0.0025090  -0.0016936  -0.0084327  -0.0057972   0.0139068
           13          14          15          16          17          18
    1  -0.0002093  -0.0002336  -0.0026874  -0.0020020   0.0091074   0.0160997
    2  -0.0035416  -0.0014312   0.0062679  -0.0003582   0.0087379   0.0387940
    3   0.0024700  -0.0031628   0.0044405  -0.0006031   0.0119435   0.0133524
           19          20          21          22          23          24
    1   0.0008469   0.0004259  -0.0044209  -0.0256591  -0.0030801   0.0222537
    2  -0.0007422   0.0022803  -0.0145416  -0.0043956   0.0140213  -0.0491217
    3  -0.0030871  -0.0016556   0.0016715  -0.0064455  -0.0049745  -0.0112624
           25          26          27          28          29          30
    1  -0.0011597   0.0004581   0.0034126   0.0002556  -0.1116059   0.0054271
    2   0.0002098  -0.0059835   0.0008496  -0.0005163   0.0891393  -0.0004030
    3   0.0032006   0.0021734   0.0004863   0.0019195  -0.0980941   0.0023116
           31          32          33          34          35          36
    1   0.0282976  -0.0002597   0.0011800  -0.0260494  -0.1493291   0.0011905
    2  -0.0003881  -0.0017886   0.0011871   0.0034908   0.0085657  -0.0080459
    3  -0.0037673   0.0016983   0.0042094  -0.0032866  -0.0625258   0.0017487
           37          38          39          40          41          42
    1  -0.0001927   0.0217920  -0.0127098   0.0007024   0.0066948   0.0056370
    2   0.0050333  -0.0117649   0.0113409  -0.0055327  -0.0089704   0.0051602
    3  -0.0016284   0.0069286  -0.0047397   0.0019203   0.0031819  -0.0004208
           43
    1   0.0014615
    2  -0.0059313
    3   0.0017218
 Max gradient component =       1.762E-01
 RMS gradient           =       3.378E-02
 Gradient time:  CPU 21.74 s  wall 2.81 s
 Geometry Optimization Parameters
   NAtoms,    NIC,     NZ,  NCons,   NDum,   NFix, NCnnct, MaxDiis
       43     341       0       0       0       0       0       0

 Cartesian Hessian Update
 Hessian Updated using BFGS Update


** GEOMETRY OPTIMIZATION IN DELOCALIZED INTERNAL COORDINATES **
   Searching for a Minimum

   Optimization Cycle:   3

                       Coordinates (Angstroms)
     ATOM                X               Y               Z
      1  Fe       -1.5429401191    4.2937123343   -0.2112079580
      2  O        -0.8955520360    2.5872721220    0.0827860764
      3  O        -0.9203852697    1.4522778580   -0.6720382173
      4  H         3.8222088601   -1.6774437071    1.6579043180
      5  H         4.3493467098   -2.8479614547    0.4037510344
      6  C         3.4863251798   -2.2721135240    0.7886938185
      7  H         2.7344468885   -2.9977122573    1.1517030773
      8  H         4.5392493605    0.3746022582    1.1783917978
      9  H         4.9384501993   -0.9074748809   -1.0062842825
     10  C         4.2347717679    0.7906894807    0.1975268448
     11  C         2.9054132858   -1.3590857775   -0.3455256634
     12  C         4.0018301182   -0.3472720950   -0.8139874767
     13  H         5.0616831010    1.4479565315   -0.1342379115
     14  H        -1.1254977785   -3.6531730442    1.6384283304
     15  H         0.7331479374   -2.5408186814    0.5654937684
     16  H         3.4573818746   -2.7029610231   -1.9929024246
     17  C         2.5363236560   -2.2529895727   -1.5759984663
     18  C         1.6331336087   -0.6122206264    0.1812517913
     19  H         3.0265963370    2.3091181793    1.2193000357
     20  H         1.8487847645   -3.0759137633   -1.3093488489
     21  C         2.9369708847    1.6096326727    0.3631994996
     22  C         0.4679606237   -1.5022886142    0.3040533625
     23  C        -1.5915813920   -3.6594262754    0.6329101110
     24  C         1.6718159780    0.7613996513    0.5460662941
     25  H        -0.8578489515   -4.1205867144   -0.0586896388
     26  H         0.8951650978    2.2792170922    1.8547542307
     27  H        -2.4706077676   -4.3215158099    0.6772069866
     28  H         3.6880017184    0.0907870068   -1.7844155264
     29  C         0.5287605781    1.5301092046    1.1245718713
     30  H        -0.2129834740    0.8851059073    1.6255345751
     31  C        -0.8801507634   -1.2551148534    0.0620085295
     32  H         2.0551444350   -1.6519104181   -2.3704054347
     33  H         2.7971945360    2.2609746373   -0.5316919641
     34  C        -1.9464832438   -2.2454128194    0.1874959336
     35  H        -0.0437189367    2.1472368557    0.3022515757
     36  H        -1.1965566075   -0.2573806374   -0.2837014632
     37  H        -4.3680528538   -3.7087957143    0.2248370529
     38  C        -3.2594860647   -1.8397191981   -0.1076381648
     39  C        -4.4642352769   -2.6469705128   -0.0547715898
     40  H        -3.4053875680   -0.7873040427   -0.4135475081
     41  C        -5.7165036545   -2.1511620039   -0.3409077982
     42  H        -6.6154286987   -2.7869190127   -0.2950879448
     43  H        -5.8684576328   -1.0950584844   -0.6239171979
   Point Group: c1    Number of degrees of freedom:   123


   Energy is  -2013.772488371

 Hessian Updated using BFGS Update

115 Hessian modes will be used to form the next step
  Hessian Eigenvalues:
     0.002608    0.003296    0.003578    0.005279    0.008193    0.008556
     0.009259    0.011109    0.012354    0.013454    0.013837    0.015413
     0.015487    0.016078    0.016733    0.019731    0.020750    0.021364
     0.021527    0.022549    0.025875    0.027190    0.028322    0.028323
     0.029519    0.030705    0.031970    0.042799    0.044934    0.048049
     0.049655    0.051868    0.053436    0.053927    0.054167    0.055418
     0.056402    0.059566    0.064909    0.069386    0.070349    0.072885
     0.079019    0.079701    0.083792    0.097400    0.098487    0.108963
     0.121804    0.132737    0.133926    0.149091    0.159048    0.159808
     0.159921    0.159999    0.159999    0.160000    0.160013    0.160867
     0.172868    0.187411    0.190132    0.219194    0.219998    0.220006
     0.226831    0.228183    0.228965    0.246019    0.249821    0.249960
     0.250665    0.273689    0.277981    0.281938    0.285109    0.288237
     0.295762    0.308369    0.316458    0.319983    0.324148    0.328754
     0.330656    0.330827    0.331257    0.331421    0.331566    0.331651
     0.332130    0.332316    0.333061    0.333189    0.333374    0.333939
     0.334590    0.336859    0.339773    0.340141    0.340723    0.342253
     0.342684    0.342856    0.346343    0.359788    0.379273    0.392365
     0.423542    0.463954    0.499060    0.503917    0.521885    0.540885
     1.171675

 Minimum Search - Taking Simple RFO Step
 Searching for Lamda that Minimizes Along All modes
 Value Taken    Lamda =  -0.11259497
 Calculated Step too Large.  Step scaled by  0.545211
 Step Taken.  Stepsize is  0.300000

                             Maximum     Tolerance    Cnvgd?
         Gradient           0.102704      0.000300      NO
         Displacement       0.114577      0.001200      NO
         Energy change     -0.075549      0.000001      NO


 New Cartesian Coordinates Obtained by Inverse Iteration

 Displacement from previous Coordinates is:  0.593850
 ----------------------------------------------------------------
             Standard Nuclear Orientation (Angstroms)
    I     Atom           X                Y                Z
 ----------------------------------------------------------------
    1      Fe     -1.6132978117     4.2950357489    -0.2742346572
    2      O      -0.9598523149     2.5950808204     0.0111493878
    3      O      -0.9730597823     1.4698883491    -0.8019829028
    4      H       3.8346909546    -1.6892633676     1.6667251344
    5      H       4.3766388314    -2.8527036779     0.4070038802
    6      C       3.5072738011    -2.2867500266     0.7945255025
    7      H       2.7543002095    -3.0184555122     1.1475418717
    8      H       4.5442988892     0.3720686780     1.2037060196
    9      H       4.9688394482    -0.8966962106    -0.9916571566
   10      C       4.2464070783     0.7940581816     0.2215319067
   11      C       2.9269410852    -1.3682808031    -0.3493328539
   12      C       4.0262094764    -0.3414530396    -0.8069624730
   13      H       5.0714830055     1.4607824007    -0.1017103443
   14      H      -1.1190800577    -3.6843490892     1.6136667528
   15      H       0.7446278600    -2.5601223444     0.5300372927
   16      H       3.4951160703    -2.7102955652    -1.9980774006
   17      C       2.5655597685    -2.2678453409    -1.5899178748
   18      C       1.6406768645    -0.6293935994     0.1706930080
   19      H       3.0156346941     2.3090138732     1.2477819388
   20      H       1.8812646555    -3.0953816559    -1.3230217439
   21      C       2.9374197285     1.6146602136     0.3840918223
   22      C       0.4817362853    -1.5106223373     0.2969442164
   23      C      -1.5928392676    -3.6679641568     0.6100383089
   24      C       1.6647653730     0.7603155055     0.5519262271
   25      H      -0.8694050289    -4.1169017195    -0.1026859063
   26      H       0.8444169954     2.2418010544     1.8678255822
   27      H      -2.4822648713    -4.3197320754     0.6452574112
   28      H       3.7178728926     0.1004729688    -1.7787504799
   29      C       0.5088936359     1.4925042975     1.1219599134
   30      H      -0.2434699091     0.8331093158     1.5904434846
   31      C      -0.8794492927    -1.2417992532     0.0796543248
   32      H       2.0867182127    -1.6659886398    -2.3867786572
   33      H       2.8007690494     2.2685952411    -0.5114755764
   34      C      -1.9410961305    -2.2336164677     0.1972173707
   35      H      -0.0669230392     2.1327588025     0.2776084254
   36      H      -1.1858207185    -0.2242225220    -0.2404920868
   37      H      -4.3688415230    -3.6967356599     0.2332691904
   38      C      -3.2664968267    -1.8121813959    -0.0789062278
   39      C      -4.4668670391    -2.6271351940    -0.0264024133
   40      H      -3.4143711219    -0.7507953175    -0.3638865972
   41      C      -5.7254360705    -2.1180187445    -0.2933893276
[...]
   40   -2013.9772166675      3.54e-05   Normal BFGS step
   41   -2013.9772166671      6.66e-05   Normal BFGS step
   42   -2013.9772166685      2.97e-05   Normal BFGS step
   43   -2013.9772166671      5.82e-05   Normal BFGS step
   44   -2013.9772166691      7.04e-06   Normal BFGS step
   45   -2013.9772166690      1.27e-05   Normal BFGS step
   46   -2013.9772166693      1.67e-05   Normal BFGS step
   47   -2013.9772166690      2.59e-05   Normal BFGS step
   48   -2013.9772166693      2.79e-06   Normal BFGS step
   49   -2013.9772166693      8.15e-06   Normal BFGS step
   50   -2013.9772166694      1.88e-06   Normal BFGS step
   51   -2013.9772166693      2.77e-06   Normal BFGS step
   52   -2013.9772166694      3.08e-07   Normal BFGS step
   53   -2013.9772166694      5.11e-07   Normal BFGS step
   54   -2013.9772166694      4.63e-08   Normal BFGS step
   55   -2013.9772166694      1.15e-07   Normal BFGS step
   56   -2013.9772166694      2.38e-08   Normal BFGS step
   57   -2013.9772166694      4.67e-08   Normal BFGS step
   58   -2013.9772166694      1.09e-08   Normal BFGS step
  /scratch/qcdevops/jenkins/workspace/build_qchem_linux_distrib/tags/qc511/qchem/libgscf/libgscf/opt/gdm.C::WARNING energy changes are now smaller than effective accuracy.
  /scratch/qcdevops/jenkins/workspace/build_qchem_linux_distrib/tags/qc511/qchem/libgscf/libgscf/opt/gdm.C::        calculation will continue, but THRESH should be increased
  /scratch/qcdevops/jenkins/workspace/build_qchem_linux_distrib/tags/qc511/qchem/libgscf/libgscf/opt/gdm.C::        or SCF_CONVERGENCE decreased. 
  /scratch/qcdevops/jenkins/workspace/build_qchem_linux_distrib/tags/qc511/qchem/libgscf/libgscf/opt/gdm.C::        effective_thresh = 5.01e-09
   59   -2013.9772166694      2.29e-08   Normal BFGS step
   60   -2013.9772166694      4.03e-09  Convergence criterion met
 ---------------------------------------
 SCF time:   CPU 358.13s  wall 45.00s 
<S^2> =          7.218044357
 SCF   energy in the final basis set =    -2013.9772166694
 Total energy in the final basis set =    -2013.9772166694
 
 --------------------------------------------------------------
 
                    Orbital Energies (a.u.)
 --------------------------------------------------------------
 
 Alpha MOs
 -- Occupied --
******* -29.631 -26.185 -26.184 -26.179 -18.941 -18.934 -10.055
-10.049 -10.046 -10.041 -10.039 -10.030 -10.025 -10.022 -10.007
 -9.996  -9.994  -9.990  -9.962  -9.952  -9.941  -9.940  -3.826
 -2.667  -2.663  -2.656  -1.275  -0.971  -0.966  -0.953  -0.916
 -0.889  -0.877  -0.843  -0.819  -0.816  -0.777  -0.767  -0.763
 -0.719  -0.698  -0.687  -0.675  -0.652  -0.630  -0.618  -0.613
 -0.598  -0.592  -0.583  -0.575  -0.570  -0.563  -0.561  -0.559
 -0.554  -0.542  -0.537  -0.529  -0.527  -0.523  -0.512  -0.511
 -0.509  -0.507  -0.496  -0.495  -0.494  -0.488  -0.481  -0.478
 -0.476  -0.472  -0.465  -0.459  -0.438  -0.435  -0.424  -0.406
 -0.388  -0.365
 -- Virtual --
 -0.365  -0.359  -0.292  -0.238  -0.219  -0.216  -0.158  -0.150
 -0.119  -0.045   0.013   0.028   0.053   0.058   0.065   0.073
  0.082   0.089   0.093   0.098   0.110   0.116   0.125   0.136
  0.137   0.146   0.152   0.156   0.165   0.171   0.174   0.183
  0.197   0.206   0.208   0.215   0.223   0.226   0.234   0.240
  0.248   0.250   0.262   0.264   0.278   0.285   0.308   0.343
  0.352   0.376
 
 Beta MOs
 -- Occupied --
******* -29.591 -26.153 -26.152 -26.149 -18.947 -18.943 -10.053
-10.048 -10.044 -10.040 -10.038 -10.030 -10.023 -10.023 -10.007
 -9.996  -9.994  -9.990  -9.962  -9.952  -9.941  -9.940  -3.617
 -2.460  -2.452  -2.449  -1.299  -0.999  -0.969  -0.950  -0.914
 -0.888  -0.876  -0.841  -0.818  -0.813  -0.777  -0.766  -0.762
 -0.717  -0.697  -0.686  -0.674  -0.651  -0.638  -0.617  -0.612
 -0.604  -0.597  -0.594  -0.582  -0.572  -0.569  -0.560  -0.558
 -0.553  -0.541  -0.537  -0.529  -0.527  -0.522  -0.511  -0.510
 -0.506  -0.494  -0.483  -0.480  -0.470  -0.465  -0.457  -0.455
 -0.439  -0.437  -0.434  -0.423  -0.400  -0.388
 -- Virtual --
 -0.352  -0.295  -0.286  -0.285  -0.281  -0.279  -0.278  -0.236
 -0.210  -0.207  -0.158  -0.150  -0.111  -0.031   0.014   0.029
  0.057   0.059   0.067   0.074   0.084   0.090   0.094   0.099
  0.112   0.119   0.126   0.137   0.139   0.147   0.153   0.158
  0.166   0.172   0.175   0.184   0.197   0.207   0.209   0.216
  0.224   0.226   0.234   0.240   0.249   0.251   0.263   0.264
  0.278   0.287   0.310   0.345   0.354   0.378
 --------------------------------------------------------------
 
          Ground-State Mulliken Net Atomic Charges

     Atom                 Charge (a.u.)    Spin (a.u.)
  --------------------------------------------------------
      1 Fe                    0.669083       4.452540
      2 O                     0.018719      -0.647915
      3 O                    -0.082214      -0.410151
      4 H                     0.085706      -0.000040
      5 H                     0.103871      -0.000497
      6 C                    -0.212124       0.000748
      7 H                     0.080510       0.000217
      8 H                     0.091469      -0.000151
      9 H                     0.103143       0.000982
     10 C                    -0.125675       0.005116
     11 C                     0.032554       0.003034
     12 C                    -0.129781       0.001166
     13 H                     0.105799       0.000460
     14 H                     0.112191       0.000543
     15 H                     0.126257      -0.002730
     16 H                     0.102588       0.000140
     17 C                    -0.213641       0.001768
     18 C                     0.029801       0.008616
     19 H                     0.103405       0.001957
     20 H                     0.077363      -0.000082
     21 C                    -0.133255      -0.008167
     22 C                    -0.016296       0.066187
     23 C                    -0.220617      -0.000542
     24 C                     0.095925       0.177346
     25 H                     0.118388       0.001185
     26 H                     0.128649       0.009490
     27 H                     0.111641       0.000136
     28 H                     0.084877      -0.000128
     29 C                    -0.221467      -0.009130
     30 H                     0.098590       0.000626
     31 C                    -0.034640       0.055079
     32 H                     0.082368      -0.000019
     33 H                     0.114898       0.009530
     34 C                     0.055229       0.006318
     35 H                     0.107622       0.005003
     36 H                     0.110692      -0.002324
     37 H                     0.129557       0.001766
     38 C                    -0.001174       0.147919
     39 C                    -0.043143      -0.047905
     40 H                     0.117196      -0.006351
     41 C                    -0.044849       0.195221
     42 H                     0.149296      -0.008578
     43 H                     0.131489      -0.008384
  --------------------------------------------------------
  Sum of atomic charges =     2.000000
  Sum of spin   charges =     4.000000

 -----------------------------------------------------------------
                    Cartesian Multipole Moments
 -----------------------------------------------------------------
    Charge (ESU x 10^10)
                 9.6064
    Dipole Moment (Debye)
         X      -8.3854      Y      10.7620      Z       0.5805
       Tot      13.6555
    Quadrupole Moments (Debye-Ang)
        XX     -26.9714     XY       4.2495     YY      69.5295
        XZ       1.5657     YZ       1.0272     ZZ    -112.2098
    Octopole Moments (Debye-Ang^2)
       XXX    -264.9525    XXY    -184.1262    XYY    -267.3183
       YYY     750.4112    XXZ     -27.4556    XYZ      -3.8709
       YYZ      10.2634    XZZ      -2.8554    YZZ     -37.7031
       ZZZ      -6.5245
    Hexadecapole Moments (Debye-Ang^3)
      XXXX   -3402.1804   XXXY     951.4645   XXYY   -1774.3613
      XYYY    -718.9663   YYYY   -2482.1136   XXXZ     113.4422
      XXYZ      49.5766   XYYZ     -31.5136   YYYZ       0.1604
      XXZZ    -995.0034   XYZZ      51.4542   YYZZ   -1676.0356
      XZZZ      24.4794   YZZZ       1.0288   ZZZZ    -413.1243
 -----------------------------------------------------------------
 Calculating analytic gradient of the SCF energy
 Gradient of SCF Energy
            1           2           3           4           5           6
    1   0.0007496  -0.0032861   0.0030721   0.0000051  -0.0001094   0.0006120
    2  -0.0019629   0.0013568  -0.0021286   0.0001899   0.0000676  -0.0003485
    3   0.0004632  -0.0031438   0.0027188   0.0000413  -0.0000558  -0.0006235
            7           8           9          10          11          12
    1   0.0004890   0.0000958   0.0000035  -0.0005943  -0.0018951   0.0005041
    2   0.0000119   0.0000013   0.0002623   0.0002396   0.0030641  -0.0012343
    3   0.0002962   0.0000247   0.0001403   0.0006473   0.0023277  -0.0005149
           13          14          15          16          17          18
    1  -0.0001694   0.0002056  -0.0007979  -0.0000126  -0.0008824   0.0036248
    2   0.0001795  -0.0000593  -0.0002705   0.0002340  -0.0019852  -0.0005156
    3   0.0000659   0.0001599   0.0002667  -0.0000901  -0.0014480  -0.0026057
           19          20          21          22          23          24
    1  -0.0000089  -0.0000477   0.0012710   0.0009875  -0.0005998  -0.0029154
    2   0.0000242   0.0003538  -0.0010227  -0.0002762  -0.0005663   0.0014238
    3  -0.0000554   0.0003896   0.0003587   0.0011954  -0.0007085   0.0027636
           25          26          27          28          29          30
    1  -0.0000589  -0.0003040   0.0000442   0.0002465   0.0074169  -0.0027052
    2   0.0001055   0.0012470   0.0000318   0.0000231  -0.0062018   0.0033565
    3   0.0000958  -0.0004103  -0.0000743   0.0000273  -0.0045867  -0.0005091
           31          32          33          34          35          36
    1  -0.0030879  -0.0000071  -0.0001568   0.0051906  -0.0038880   0.0002427
    2   0.0009483   0.0002962   0.0001966  -0.0003541   0.0028767   0.0002784
    3  -0.0002633   0.0000332  -0.0002951   0.0008589   0.0030647   0.0003868
           37          38          39          40          41          42
    1  -0.0002934  -0.0044233   0.0022033   0.0003935  -0.0011214  -0.0000621
    2  -0.0000920  -0.0003298   0.0002254  -0.0000719   0.0005119  -0.0001279
    3  -0.0001446  -0.0008516   0.0007866  -0.0005579  -0.0002201   0.0001886
           43
    1   0.0000696
    2   0.0000416
    3  -0.0001426
 Max gradient component =       7.417E-03
 RMS gradient           =       1.668E-03
 Gradient time:  CPU 18.60 s  wall 2.39 s
 Geometry Optimization Parameters
   NAtoms,    NIC,     NZ,  NCons,   NDum,   NFix, NCnnct, MaxDiis
       43     341       0       0       0       0       0       0

 Cartesian Hessian Update
 Hessian Updated using BFGS Update


** GEOMETRY OPTIMIZATION IN DELOCALIZED INTERNAL COORDINATES **
   Searching for a Minimum

   Optimization Cycle:  50

                       Coordinates (Angstroms)
     ATOM                X               Y               Z
      1  Fe       -1.3557064674    7.5134934981   -0.0275077163
      2  O        -0.7937812069    5.5479760975    0.2726601950
      3  O        -1.9173583078    5.9432575282   -0.5043787985
      4  H         3.8331682535   -1.5612105589    1.7784036457
      5  H         4.4920328128   -2.8574543889    0.7135535363
      6  C         3.5748240768   -2.3039452966    0.9975476536
      7  H         2.8493034574   -3.0269741407    1.4211743565
      8  H         4.4653801023    0.5067460424    1.0372169474
      9  H         5.0407162553   -1.0676072039   -0.8982895205
     10  C         4.1560159609    0.7405072337   -0.0040476884
     11  C         2.9908055842   -1.5914502703   -0.3014754657
     12  C         4.0544241347   -0.5566428071   -0.8678370271
     13  H         4.9088148901    1.4341942205   -0.4372964571
     14  H        -0.8484959956   -4.0148795380    1.4985253613
     15  H         0.7641021918   -2.8387503638    0.3878426159
     16  H         3.7110561671   -3.0657837922   -1.7832814877
     17  C         2.7314568504   -2.6875631343   -1.4284773911
     18  C         1.6298066841   -0.8721443317    0.0908781851
     19  H         2.7609430380    2.3461786634    0.6920713328
     20  H         2.1530807735   -3.5485520958   -1.0402485615
     21  C         2.7627264289    1.4687279582    0.0084090555
     22  C         0.4934933600   -1.7689735294    0.2639153305
     23  C        -1.5321381228   -4.0133920748    0.6241298350
     24  C         1.5792140572    0.5431756534    0.3695312376
     25  H        -1.0222257534   -4.5268007520   -0.2224864685
     26  H         0.8807865846    1.4432598433    2.1926835580
     27  H        -2.4327268451   -4.5989017320    0.8874663563
     28  H         3.7824938444   -0.2850916996   -1.9111022166
     29  C         0.4685643692    1.2325653484    1.1749832747
     30  H        -0.4633851561    0.6515747665    1.3007797898
     31  C        -0.9111794902   -1.5207476430    0.1054297131
     32  H         2.1940129236   -2.2437595444   -2.2909050461
     33  H         2.5552714559    1.8583697939   -1.0234220948
     34  C        -1.9042299435   -2.5674142091    0.2130170659
     35  H         0.2040274503    2.2307021881    0.7529517910
     36  H        -1.2633017022   -0.5113860307   -0.1893107955
     37  H        -4.3196135444   -4.1120981576    0.2687966793
     38  C        -3.2694191819   -2.1952182844   -0.1110429449
     39  C        -4.4313813571   -3.0573458744   -0.0536303304
     40  H        -3.4402751300   -1.1454770417   -0.4400899759
     41  C        -5.7025734607   -2.5868238625   -0.3968412259
     42  H        -6.5929032493   -3.2511429136   -0.3433175764
     43  H        -5.8675773810   -1.5398112911   -0.7331632919
   Point Group: c1    Number of degrees of freedom:   123


   Energy is  -2013.977216669

 Hessian Updated using BFGS Update

123 Hessian modes will be used to form the next step
  Hessian Eigenvalues:
     0.000000    0.001112    0.001762    0.003325    0.003522    0.003880
     0.005902    0.006933    0.008850    0.011101    0.012701    0.014909
     0.015699    0.015996    0.016770    0.017891    0.021136    0.021357
     0.021591    0.022458    0.023308    0.026369    0.028276    0.028337
     0.028933    0.031445    0.032028    0.034194    0.040860    0.043371
     0.045604    0.048775    0.049777    0.053573    0.054067    0.054313
     0.055564    0.056412    0.059318    0.060126    0.070007    0.070464
     0.073044    0.079272    0.079963    0.084092    0.095320    0.100487
     0.118612    0.119667    0.122826    0.136714    0.149219    0.158950
     0.159810    0.159995    0.160007    0.160018    0.160034    0.160044
     0.160060    0.160195    0.160412    0.160448    0.160765    0.161126
     0.161680    0.163110    0.168461    0.171173    0.188124    0.200596
     0.219803    0.220630    0.224265    0.230093    0.241517    0.251290
     0.255841    0.260657    0.266036    0.279213    0.282649    0.287284
     0.288504    0.293982    0.308398    0.312409    0.319780    0.324419
     0.328820    0.330693    0.331231    0.331241    0.331411    0.331550
     0.331990    0.332061    0.332250    0.333042    0.333263    0.333448
     0.334151    0.334956    0.336805    0.339788    0.340410    0.342296
     0.342395    0.343151    0.345126    0.346526    0.359124    0.361827
     0.374940    0.391588    0.419104    0.425120    0.516549    0.532477
     0.575155    0.624737    0.994411
**WARNING** Magnitude of eigenvalue   1 too small.  Replaced by     0.000100

 Minimum Search - Taking Simple RFO Step
 Searching for Lamda that Minimizes Along All modes
 Value Taken    Lamda =  -0.00168130
 Calculated Step too Large.  Step scaled by  0.413260
 Step Taken.  Stepsize is  0.300000

                             Maximum     Tolerance    Cnvgd?
         Gradient           0.003203      0.000300      NO
         Displacement       0.134828      0.001200      NO
         Energy change     -0.000508      0.000001      NO


 New Cartesian Coordinates Obtained by Inverse Iteration

 Displacement from previous Coordinates is:  0.674622
 ----------------------------------------------------------------
             Standard Nuclear Orientation (Angstroms)
    I     Atom           X                Y                Z
 ----------------------------------------------------------------
    1      Fe     -1.2599736784     7.6660445805    -0.0467377003
    2      O      -0.7331510391     5.6713852146     0.2538066028
    3      O      -1.8335427242     6.1119678485    -0.5309103692
    4      H       3.8204290033    -1.5721515839     1.7742521341
    5      H       4.4791932645    -2.8616931758     0.7018869044
    6      C       3.5619768239    -2.3095381974     0.9883927099
    7      H       2.8368017191    -3.0350076285     1.4081476386
    8      H       4.4467967736     0.4920883683     1.0571866296
    9      H       5.0309021876    -1.0648340190    -0.8984289585
   10      C       4.1485232794     0.7363176032     0.0152081765
   11      C       2.9794405590    -1.5876520178    -0.3059769735
   12      C       4.0460599657    -0.5516496825    -0.8619719420
   13      H       4.9077949247     1.4313667694    -0.4043317787
   14      H      -0.8220923988    -4.0364288068     1.4887119461
   15      H       0.7668546898    -2.8400321169     0.3896387329
   16      H       3.6973015384    -3.0554485850    -1.7952669617
   17      C       2.7185722927    -2.6748186348    -1.4406875505
   18      C       1.6179638579    -0.8684388769     0.0898469257
   19      H       2.7529767521     2.3434015536     0.7081011093
   20      H       2.1346557262    -3.5354363143    -1.0600227394
   21      C       2.7569006243     1.4692363102     0.0207673993
   22      C       0.4863913883    -1.7728995007     0.2661610607
   23      C      -1.5188096873    -4.0385983389     0.6249361469
   24      C       1.5678269721     0.5451788640     0.3690732967
   25      H      -1.0190745249    -4.5487113463    -0.2297283895
   26      H       0.8473414220     1.4365738199     2.1889486806
   27      H      -2.4122066948    -4.6290489232     0.9019506078
   28      H       3.7749779078    -0.2671814382    -1.9020142445
   29      C       0.4506207766     1.2416546235     1.1620720730
   30      H      -0.4887253402     0.6686606959     1.2647482186
   31      C      -0.9199087282    -1.5384561079     0.1142356414
   32      H       2.1858176235    -2.2225355328    -2.3016556517
   33      H       2.5601756200     1.8620385520    -1.0118664635
   34      C      -1.9045469914    -2.5944221794     0.2203699185
   35      H       0.2104471654     2.2459342451     0.7470475599
   36      H      -1.2851648372    -0.5324615533    -0.1749343455
   37      H      -4.3038660768    -4.1614965904     0.2645761803
   38      C      -3.2721143727    -2.2320742774    -0.0996749169
   39      C      -4.4263835753    -3.1052377638    -0.0487407547
   40      H      -3.4531234663    -1.1816580416    -0.4208720566
   41      C      -5.7021328543    -2.6448065265    -0.3876994519
   42      H      -6.5852459976    -3.3189888765    -0.3400288439
   43      H      -5.8784304589    -1.5967561388    -0.7147007652
 ----------------------------------------------------------------
 Molecular Point Group                 C1    NOp =  1
 Largest Abelian Subgroup              C1    NOp =  1
 Nuclear Repulsion Energy =  1494.5158692232 hartrees
 There are       82 alpha and       78 beta electrons


 *******************************************
 **  MAXIMUM OPTIMIZATION CYCLES REACHED  **
 *******************************************

 Q-Chem fatal error occurred in module 0, line  456:

 Maximum optimization cycles reached

