
Running Job 1 of 1 car_2_diox_opt_631g_gga.in
qchem car_2_diox_opt_631g_gga.in_11093.0 /scr/c295_lal/137093/qchem11093/ 1
/usr/software/qchem_511/exe/qcprog.exe_s car_2_diox_opt_631g_gga.in_11093.0 /scr/c295_lal/137093/qchem11093/
Check license passed

                  Welcome to Q-Chem
     A Quantum Leap Into The Future Of Chemistry


 Q-Chem 5.1, Q-Chem, Inc., Pleasanton, CA (2018)

 Yihan Shao,  Zhengting Gan,  E. Epifanovsky,  A. T. B. Gilbert,  M. Wormit,  
 J. Kussmann,  A. W. Lange,  A. Behn,  Jia Deng,  Xintian Feng,  D. Ghosh,  
 M. Goldey,  P. R. Horn,  L. D. Jacobson,  I. Kaliman,  T. Kus,  A. Landau,  
 Jie Liu,  E. I. Proynov,  R. M. Richard,  R. P. Steele,  E. J. Sundstrom,  
 H. L. Woodcock III,  P. M. Zimmerman,  D. Zuev,  B. Albrecht,  E. Alguire,  
 S. A. Baeppler,  D. Barton,  Z. Benda,  Y. A. Bernard,  E. J. Berquist,  
 K. B. Bravaya,  H. Burton,  D. Casanova,  Chun-Min Chang,  Yunqing Chen,  
 A. Chien,  K. D. Closser,  M. P. Coons,  S. Coriani,  S. Dasgupta,  
 A. L. Dempwolff,  M. Diedenhofen,  Hainam Do,  R. G. Edgar,  Po-Tung Fang,  
 S. Faraji,  S. Fatehi,  Qingguo Feng,  K. D. Fenk,  J. Fosso-Tande,  
 Qinghui Ge,  A. Ghysels,  G. Gidofalvi,  J. Gomes,  J. Gonthier,  A. Gunina,  
 D. Hait,  M. W. D. Hanson-Heine,  P. H. P. Harbach,  A. W. Hauser,  
 J. E. Herr,  E. G. Hohenstein,  Z. C. Holden,  Kerwin Hui,  B. C. Huynh,  
 T.-C. Jagau,  Hyunjun Ji,  B. Kaduk,  K. Khistyaev,  Jaehoon Kim,  
 P. Klunzinger,  K. Koh,  D. Kosenkov,  L. Koulias,  T. Kowalczyk,  
 C. M. Krauter,  A. Kunitsa,  Ka Un Lao,  A. Laurent,  K. V. Lawler,  
 Joonho Lee,  D. Lefrancois,  S. Lehtola,  D. S. Levine,  Yi-Pei Li,  
 You-Sheng Lin,  Fenglai Liu,  E. Livshits,  A. Luenser,  P. Manohar,  
 E. Mansoor,  S. F. Manzer,  Shan-Ping Mao,  Yuezhi Mao,  N. Mardirossian,  
 A. V. Marenich,  T. Markovich,  L. A. Martinez-Martinez,  S. A. Maurer,  
 N. J. Mayhall,  S. C. McKenzie,  J.-M. Mewes,  A. F. Morrison,  
 J. W. Mullinax,  K. Nanda,  T. S. Nguyen-Beck,  R. Olivares-Amaya,  
 J. A. Parkhill,  T. M. Perrine,  F. Plasser,  P. Pokhilko,  S. Prager,  
 A. Prociuk,  E. Ramos,  D. R. Rehn,  F. Rob,  M. Schneider,  N. Sergueev,  
 S. M. Sharada,  S. Sharma,  D. W. Small,  T. Stauch,  T. Stein,  
 Yu-Chuan Su,  A. J. W. Thom,  A. Tkatchenko,  T. Tsuchimochi,  N. M. Tubman,  
 L. Vogt,  M. L. Vidal,  O. Vydrov,  M. A. Watson,  J. Wenzel,  
 M. de Wergifosse,  T. A. Wesolowski,  A. White,  J. Witte,  A. Yamada,  
 Jun Yang,  K. Yao,  S. Yeganeh,  S. R. Yost,  Zhi-Qiang You,  A. Zech,  
 Igor Ying Zhang,  Xing Zhang,  Yan Zhao,  Ying Zhu,  B. R. Brooks,  
 G. K. L. Chan,  C. J. Cramer,  M. S. Gordon,  W. J. Hehre,  A. Klamt,  
 M. W. Schmidt,  C. D. Sherrill,  D. G. Truhlar,  A. Aspuru-Guzik,  R. Baer,  
 A. T. Bell,  N. A. Besley,  Jeng-Da Chai,  A. E. DePrince, III,  
 R. A. DiStasio Jr.,  A. Dreuw,  B. D. Dunietz,  T. R. Furlani,  
 Chao-Ping Hsu,  Yousung Jung,  Jing Kong,  D. S. Lambrecht,  WanZhen Liang,  
 C. Ochsenfeld,  V. A. Rassolov,  L. V. Slipchenko,  J. E. Subotnik,  
 T. Van Voorhis,  J. M. Herbert,  A. I. Krylov,  P. M. W. Gill,  M. Head-Gordon

 Contributors to earlier versions of Q-Chem not listed above: 
 R. D. Adamson,  B. Austin,  J. Baker,  G. J. O. Beran,  K. Brandhorst,  
 S. T. Brown,  E. F. C. Byrd,  A. K. Chakraborty,  C.-L. Cheng,  
 Siu Hung Chien,  D. M. Chipman,  D. L. Crittenden,  H. Dachsel,  
 R. J. Doerksen,  A. D. Dutoi,  L. Fusti-Molnar,  W. A. Goddard III,  
 A. Golubeva-Zadorozhnaya,  S. R. Gwaltney,  G. Hawkins,  A. Heyden,  
 S. Hirata,  G. Kedziora,  F. J. Keil,  C. Kelley,  Jihan Kim,  R. A. King,  
 R. Z. Khaliullin,  P. P. Korambath,  W. Kurlancheek,  A. M. Lee,  M. S. Lee,  
 S. V. Levchenko,  Ching Yeh Lin,  D. Liotard,  R. C. Lochan,  I. Lotan,  
 P. E. Maslen,  N. Nair,  D. P. O'Neill,  D. Neuhauser,  E. Neuscamman,  
 C. M. Oana,  R. Olson,  B. Peters,  R. Peverati,  P. A. Pieniazek,  
 Y. M. Rhee,  J. Ritchie,  M. A. Rohrdanz,  E. Rosta,  N. J. Russ,  
 H. F. Schaefer III,  N. E. Schultz,  N. Shenvi,  A. C. Simmonett,  A. Sodt,  
 D. Stuck,  K. S. Thanthiriwatte,  V. Vanovschi,  Tao Wang,  A. Warshel,  
 C. F. Williams,  Q. Wu,  X. Xu,  W. Zhang

 Please cite Q-Chem as follows:
 Y. Shao et al., Mol. Phys. 113, 184-215 (2015)
 DOI: 10.1080/00268976.2014.952696

 Q-Chem 5.1.1 for Intel X86 EM64T Linux

 Parts of Q-Chem use Armadillo 8.300.2 (Tropical Shenanigans).
 http://arma.sourceforge.net/

 Q-Chem begins on Wed Oct 31 16:14:51 2018  

Host: cub-0-3.local
0

     Scratch files written to /scr/c295_lal/137093/qchem11093//
 Aug318 |scratch|qcdevops|jenkins|workspace|build_RNUM -1
Processing $rem in /usr/software/qchem_511/config/preferences.
 MEM_TOTAL  2000 
Input Ideriv = 2
Curr. Ideriv = -1
Max.  Ideriv = 2

Checking the input file for inconsistencies... 	...done.

--------------------------------------------------------------
User input:
--------------------------------------------------------------
$molecule
0 1
C          0.93080        0.85677       -0.83010
C          0.12511        0.62976        0.22399
C          0.28990       -0.60291        1.03962
C         -0.44746       -0.95295        2.12320
C         -0.10737       -2.27046        2.80682
C          0.09939       -2.23385        4.28486
H         -0.63611        1.35356        0.46624
H          1.08465       -1.27775        0.72909
C          1.41387       -2.87595        4.75649
C          2.56434       -2.12077        4.68374
C          3.89798       -2.60441        5.22044
C          3.77243       -3.76820        6.19688
H          4.40905       -1.78849        5.77676
H          4.53558       -2.87365        4.35030
C          2.90095       -4.82797        5.56355
H          3.32670       -3.43131        7.15531
H          4.78690       -4.16598        6.41578
C          1.44257       -4.31935        5.34680
H          2.89741       -5.75435        6.17974
H          3.37560       -5.08630        4.58845
C          2.62337       -0.72934        4.08181
H          1.66625       -0.34132        3.69655
H          3.34482       -0.72679        3.23799
H          2.97369       -0.01039        4.85180
C          0.67432       -4.32202        6.68849
H          1.10879       -3.59838        7.40768
H          0.69785       -5.33170        7.15222
H         -0.39034       -4.04703        6.54846
C          0.79936       -5.36167        4.39585
H          1.30727       -5.35278        3.40723
H         -0.27981       -5.21265        4.22736
H          0.89160       -6.38416        4.82347
C          0.84139        2.06667       -1.70638
C          1.72340        2.15801       -2.73345
C          1.81042        3.26707       -3.71920
C          2.72757        3.24193       -4.69046
H          1.14872        4.12136       -3.69068
H          2.44238        1.35112       -2.86202
H          3.42816        2.41745       -4.78498
H          2.78334        4.05650       -5.40565
H          1.69436        0.11655       -1.06024
C         -1.59426       -0.12001        2.66954
H         -1.80616        0.80443        2.10887
H         -1.38855        0.18881        3.71273
H         -2.52431       -0.72520        2.65471
C         -0.21150        3.11883       -1.41388
H         -0.21607        3.98007       -2.10150
H         -0.05302        3.52274       -0.39199
H         -1.21893        2.65577       -1.47010
O         -1.03649       -3.04357        4.37674
H         -0.13268       -1.28056        4.80255
O         -1.24520       -3.03834        3.05451
H          0.65290       -2.89877        2.28834
$end

$rem
BASIS = 6-31G(d,p)
METHOD  = BLYP
JOBTYPE = OPT
$end
--------------------------------------------------------------
 ----------------------------------------------------------------
             Standard Nuclear Orientation (Angstroms)
    I     Atom           X                Y                Z
 ----------------------------------------------------------------
    1      C       3.7996178268    -0.0338951533    -0.3543983821
    2      C       2.8690172885     0.8021495451     0.1423787758
    3      C       1.4551729669     0.7000406272    -0.3076227498
    4      C       0.4218021057     1.4729343888     0.1108904330
    5      C      -0.9494421216     1.1959148971    -0.4905907246
    6      C      -2.0849355823     1.0199947830     0.4625089268
    7      H       3.1643505816     1.5415755152     0.8690526171
    8      H       1.2423304225    -0.0761455835    -1.0395370115
    9      C      -2.9065778983    -0.2597197956     0.2393062406
   10      C      -2.4223289809    -1.4382279015     0.7644654984
   11      C      -3.1960564269    -2.7414465955     0.7051606580
   12      C      -4.6803494508    -2.5525037947     0.4139908153
   13      H      -3.1379074533    -3.2697259173     1.6818640873
   14      H      -2.7129571744    -3.3875026662    -0.0599499373
   15      C      -4.8170923876    -1.6569259537    -0.7955291028
   16      H      -5.1973746721    -2.0986979276     1.2843374850
   17      H      -5.1402782332    -3.5468428217     0.2267718690
   18      C      -4.2717464676    -0.2230644647    -0.5141287667
   19      H      -5.8770821969    -1.6063241906    -1.1298098498
   20      H      -4.2390053975    -2.1428470076    -1.6156164046
   21      C      -1.0841720872    -1.5608937473     1.4688595137
   22      H      -0.5031733575    -0.6270982046     1.5432224275
   23      H      -0.4545413295    -2.3000508452     0.9305838490
   24      H      -1.2466980137    -1.9204124659     2.5065634306
   25      C      -5.2870437792     0.5736297580     0.3372212975
   26      H      -5.4104375541     0.1287663965     1.3454493731
   27      H      -6.2816695164     0.5969192772    -0.1579858486
   28      H      -4.9634581663     1.6242914137     0.4791059438
   29      C      -4.1594382337     0.4369390391    -1.9127846302
   30      H      -3.4046716455    -0.0922342544    -2.5338515568
   31      H      -3.8920795742     1.5060683237    -1.8865997202
   32      H      -5.1367188671     0.3912651514    -2.4416412665
   33      C       5.2433974634    -0.0075820997     0.0387005630
   34      C       6.0649106434    -0.9143537964    -0.5478474791
   35      C       7.5236766821    -1.0630099376    -0.3045521388
   36      C       8.2273596828    -1.9994412331    -0.9472564199
   37      H       8.0631706843    -0.4323912837     0.3880790902
   38      H       5.6307107037    -1.6060921343    -1.2672239046
   39      H       7.7563671810    -2.6714287220    -1.6586821201
   40      H       9.2922430190    -2.1002976450    -0.7629122350
   41      H       3.4844763428    -0.7747990894    -1.0862871332
   42      C       0.5641977334     2.6002015613     1.1190664524
   43      H       1.5883176223     2.7661186387     1.4898652509
   44      H      -0.0622419523     2.4060084312     2.0111393872
   45      H       0.2333599918     3.5511309556     0.6524321807
   46      C       5.7170016257     1.0123840101     1.0568078757
   47      H       6.7920750812     0.9707108522     1.2956737381
   48      H       5.1686098596     0.8614552947     2.0102256039
   49      H       5.5105250153     2.0345532512     0.6759694471
   50      O      -2.6188335154     2.1863257922    -0.0933118728
   51      H      -1.8811277969     1.2283508780     1.5328693191
   52      O      -1.5782931361     2.3660427540    -0.9160250199
   53      H      -0.9699240084     0.4479831911    -1.3162929075
 ----------------------------------------------------------------
 Molecular Point Group                 C1    NOp =  1
 Largest Abelian Subgroup              C1    NOp =  1
 Nuclear Repulsion Energy =  1888.5989219905 hartrees
 There are       86 alpha and       86 beta electrons
 Requested basis set is 6-31G(d,p)
 There are 182 shells and 495 basis functions

 Total QAlloc Memory Limit   2000 MB
 Mega-Array Size       188 MB
 MEM_STATIC part       192 MB
 A cutoff of  1.0D-11 yielded   8238 shell pairs
 There are     62650 function pairs
 
 -------------------------------------------------------
 OpenMP Integral Computing Module                       
 Release: version 1.0, May 2013, Q-Chem Inc. Pittsburgh 
 -------------------------------------------------------
 Integral Job Info:
 Integral job number is                      11
 Integral operator is                         1
 short-range coefficients                     0
 long-range coefficients              100000000
 Omega coefficients                           0
 if combine SR and LR in K                    0
 Integral screening is                        0
 Integral computing path is                   2
 max size of driver memory is            800000
 size of driver memory is                593474
 size of scratch memory is              2361544
 max col of scratch BK array               1296
 max len of scratch array in speh3          155
 max len of scratch index in speh4           18
 max int batch size is                      520
 min int batch size is                       52
 fixed nKL is                                52
 max L of basis functions is                  2
 order of int derivative is                   0
 number of shells is                        182
 number of basis is                         495
 number of cartesian basis is               495
 number of contracted shell pairs          8238
 number of primitive shell pairs          23139
 maxK2 (contraction) of shell pair           36
 max number of K2 of shell pair               1
 max number of CS2 of shell pair            842
 max number of PS2 of shell pair           3288
 mem total for path MDJ                  602700
 -------------------------------------------------------
 Smallest overlap matrix eigenvalue = 8.39E-04

 Scale SEOQF with 1.000000e-02/1.000000e-01/1.000000e-01

 Standard Electronic Orientation quadrupole field applied
 Nucleus-field energy     =     0.0000000272 hartrees
 Guess from superposition of atomic densities
 Warning:  Energy on first SCF cycle will be non-variational
 SAD guess density has 172.000001 electrons

 -----------------------------------------------------------------------
  General SCF calculation program by
  Eric Jon Sundstrom, Paul Horn, Yuezhi Mao, Dmitri Zuev, Alec White,
  David Stuck, Shaama M.S., Shane Yost, Joonho Lee, David Small,
  Daniel Levine, Susi Lehtola, Hugh Burton, Evgeny Epifanovsky
 -----------------------------------------------------------------------
 Exchange:  B88      Correlation:  LYP
 Using SG-1 standard quadrature grid
 using 8 threads for integral computing
 -------------------------------------------------------
 OpenMP Integral computing Module                
 Release: version 1.0, May 2013, Q-Chem Inc. Pittsburgh 
 -------------------------------------------------------
 -------------------------------------------------------
 OpenMP BLAS3 based DFT computing Module                
 Release: version 1.0, May 2013, Q-Chem Inc. Pittsburgh 
 -------------------------------------------------------
 A restricted SCF calculation will be
 performed using DIIS
 SCF converges when DIIS error is below 1.0e-08
 ---------------------------------------
  Cycle       Energy         DIIS error
 ---------------------------------------
    1    -971.4823657690      3.10e-02  
    2    -967.4143927777      4.38e-03  
    3    -966.9590750466      5.65e-03  
    4    -968.0463057170      9.22e-04  
    5    -968.0625557725      6.06e-04  
    6    -968.0740652617      2.31e-04  
    7    -968.0758411942      6.33e-05  
    8    -968.0759441661      2.96e-05  
    9    -968.0759726365      6.96e-06  
   10    -968.0759740060      2.80e-06  
   11    -968.0759742150      1.15e-06  
   12    -968.0759742530      3.75e-07  
   13    -968.0759742568      1.58e-07  
   14    -968.0759742575      4.88e-08  
   15    -968.0759742576      1.58e-08  
   16    -968.0759742576      4.09e-09  Convergence criterion met
 ---------------------------------------
 SCF time:   CPU 449.77s  wall 56.00s 
 SCF   energy in the final basis set =     -968.0759742576
 Total energy in the final basis set =     -968.0759742576
 
 --------------------------------------------------------------
 
                    Orbital Energies (a.u.)
 --------------------------------------------------------------
 
 Alpha MOs
 -- Occupied --
-18.831 -18.831  -9.977  -9.977  -9.938  -9.934  -9.934  -9.929
 -9.929  -9.929  -9.928  -9.927  -9.926  -9.926  -9.925  -9.921
 -9.920  -9.920  -9.918  -9.913  -9.911  -9.905  -9.900  -1.101
 -0.797  -0.755  -0.743  -0.729  -0.702  -0.694  -0.683  -0.663
 -0.648  -0.614  -0.608  -0.598  -0.594  -0.588  -0.544  -0.524
 -0.500  -0.491  -0.484  -0.479  -0.470  -0.468  -0.456  -0.436
 -0.420  -0.414  -0.402  -0.390  -0.381  -0.379  -0.369  -0.368
 -0.366  -0.364  -0.360  -0.355  -0.344  -0.339  -0.337  -0.337
 -0.328  -0.324  -0.320  -0.314  -0.311  -0.306  -0.301  -0.298
 -0.296  -0.288  -0.288  -0.283  -0.281  -0.271  -0.266  -0.262
 -0.252  -0.242  -0.215  -0.184  -0.167  -0.147
 -- Virtual --
 -0.070  -0.017  -0.005   0.037   0.042   0.059   0.063   0.067
  0.068   0.072   0.079   0.089   0.091   0.094   0.102   0.104
  0.108   0.115   0.124   0.132   0.136   0.139   0.145   0.146
  0.149   0.149   0.152   0.158   0.160   0.168   0.171   0.175
  0.176   0.182   0.189   0.193   0.195   0.199   0.202   0.210
  0.214   0.216   0.221   0.229   0.233   0.244   0.255   0.262
  0.268   0.287   0.306   0.318   0.340   0.354   0.359   0.374
  0.395   0.400   0.405   0.438   0.450   0.455   0.465   0.471
  0.477   0.479   0.485   0.490   0.493   0.503   0.516   0.517
  0.528   0.532   0.535   0.537   0.547   0.555   0.560   0.567
  0.579   0.581   0.587   0.588   0.594   0.604   0.605   0.615
  0.624   0.631   0.636   0.642   0.646   0.660   0.665   0.669
  0.674   0.677   0.685   0.691   0.701   0.701   0.716   0.720
  0.746   0.747   0.751   0.755   0.759   0.761   0.769   0.771
  0.776   0.786   0.789   0.791   0.809   0.812   0.814   0.818
  0.820   0.831   0.834   0.836   0.844   0.848   0.851   0.853
  0.860   0.866   0.869   0.873   0.885   0.889   0.891   0.894
  0.902   0.905   0.908   0.915   0.918   0.922   0.941   0.947
  0.965   0.984   0.989   0.993   1.014   1.020   1.041   1.048
  1.059   1.062   1.085   1.091   1.099   1.123   1.126   1.140
  1.172   1.179   1.194   1.197   1.209   1.221   1.230   1.244
  1.254   1.266   1.273   1.280   1.285   1.304   1.318   1.335
  1.343   1.353   1.363   1.373   1.380   1.409   1.422   1.427
  1.439   1.446   1.451   1.465   1.475   1.489   1.507   1.519
  1.530   1.566   1.581   1.597   1.614   1.642   1.658   1.663
  1.672   1.688   1.698   1.700   1.710   1.716   1.731   1.746
  1.751   1.756   1.763   1.770   1.776   1.787   1.795   1.797
  1.801   1.805   1.813   1.825   1.837   1.843   1.852   1.861
  1.868   1.882   1.891   1.900   1.903   1.913   1.922   1.936
  1.946   1.948   1.964   1.965   1.973   1.980   1.981   1.990
  1.991   1.997   2.004   2.009   2.015   2.020   2.020   2.022
  2.025   2.037   2.037   2.052   2.055   2.063   2.073   2.078
  2.082   2.091   2.092   2.109   2.114   2.116   2.125   2.136
  2.153   2.165   2.173   2.188   2.193   2.201   2.218   2.236
  2.236   2.250   2.257   2.270   2.294   2.296   2.302   2.305
  2.318   2.326   2.340   2.348   2.354   2.356   2.361   2.386
  2.394   2.402   2.404   2.409   2.416   2.429   2.433   2.440
  2.451   2.455   2.467   2.482   2.494   2.510   2.523   2.532
  2.540   2.547   2.549   2.554   2.570   2.577   2.585   2.589
  2.610   2.616   2.619   2.629   2.636   2.645   2.649   2.655
  2.658   2.666   2.683   2.689   2.703   2.725   2.729   2.736
  2.745   2.757   2.763   2.771   2.779   2.788   2.788   2.790
  2.796   2.800   2.807   2.813   2.823   2.832   2.841   2.855
  2.870   2.877   2.898   2.906   2.935   2.951   2.970   2.990
  3.008   3.018   3.055   3.079   3.101   3.117   3.130   3.138
  3.149   3.180   3.208   3.217   3.244   3.300   3.313   3.313
  3.320   3.329   3.331   3.338   3.339   3.347   3.354   3.375
  3.379   3.390   3.401   3.410   3.431   3.452   3.474   3.483
  3.526   3.608   3.770   4.021   4.050   4.059   4.088   4.153
  4.184   4.210   4.278   4.308   4.383   4.408   4.427   4.440
  4.457   4.511   4.540   4.574   4.585   4.652   4.661   4.711
  4.877
 --------------------------------------------------------------
 
          Ground-State Mulliken Net Atomic Charges

     Atom                 Charge (a.u.)
  ----------------------------------------
      1 C                    -0.084781
      2 C                    -0.056277
      3 C                    -0.098796
      4 C                     0.132691
      5 C                     0.149249
      6 C                     0.109788
      7 H                     0.056646
      8 H                     0.051278
      9 C                     0.059980
     10 C                     0.082978
     11 C                    -0.193895
     12 C                    -0.157062
     13 H                     0.077160
     14 H                     0.085928
     15 C                    -0.135985
     16 H                     0.081450
     17 H                     0.064549
     18 C                     0.043900
     19 H                     0.065722
     20 H                     0.068285
     21 C                    -0.347064
     22 H                     0.098007
     23 H                     0.102034
     24 H                     0.098239
     25 C                    -0.286821
     26 H                     0.081925
     27 H                     0.080863
     28 H                     0.106141
     29 C                    -0.289899
     30 H                     0.075203
     31 H                     0.117081
     32 H                     0.075583
     33 C                     0.150542
     34 C                    -0.115247
     35 C                    -0.002076
     36 C                    -0.214581
     37 H                     0.059750
     38 H                     0.053350
     39 H                     0.079681
     40 H                     0.077804
     41 H                     0.053049
     42 C                    -0.353798
     43 H                     0.101272
     44 H                     0.104223
     45 H                     0.129073
     46 C                    -0.356543
     47 H                     0.097923
     48 H                     0.110071
     49 H                     0.111670
     50 O                    -0.282338
     51 H                     0.081445
     52 O                    -0.272293
     53 H                     0.072923
  ----------------------------------------
  Sum of atomic charges =    -0.000000

 -----------------------------------------------------------------
                    Cartesian Multipole Moments
 -----------------------------------------------------------------
    Charge (ESU x 10^10)
                -0.0000
    Dipole Moment (Debye)
         X       1.7078      Y      -1.6582      Z       1.4095
       Tot       2.7663
    Quadrupole Moments (Debye-Ang)
        XX    -136.3117     XY       7.4139     YY    -144.0741
        XZ       1.1533     YZ       6.3045     ZZ    -140.4741
    Octopole Moments (Debye-Ang^2)
       XXX      52.5680    XXY      -3.4881    XYY       9.1693
       YYY       5.8368    XXZ      21.7284    XYZ      14.8843
       YYZ       3.3768    XZZ      -7.3667    YZZ       2.9841
       ZZZ       3.2684
    Hexadecapole Moments (Debye-Ang^3)
      XXXX  -14516.1701   XXXY     -16.2801   XXYY   -2936.0032
      XYYY      22.5129   YYYY   -2275.5802   XXXZ     201.6479
      XXYZ      99.6405   XYYZ     -32.8764   YYYZ      21.8894
      XXZZ   -2718.7636   XYZZ     -18.7560   YYZZ    -512.3674
      XZZZ       6.3427   YZZZ      -3.6262   ZZZZ    -840.8734
 -----------------------------------------------------------------
 Calculating analytic gradient of the SCF energy
 Gradient of SCF Energy
            1           2           3           4           5           6
    1  -0.0339185   0.0335037  -0.0242095  -0.0056748  -0.0539142   0.0236780
    2  -0.0001669   0.0046610  -0.0084843   0.0051879   0.0224873   0.0412921
    3  -0.0089138   0.0116497  -0.0129640   0.0069515   0.0005322  -0.0282746
            7           8           9          10          11          12
    1   0.0018445  -0.0012806   0.0019015   0.0053225  -0.0018682   0.0063352
    2  -0.0073064   0.0039385   0.0245203  -0.0192683   0.0037978   0.0107134
    3  -0.0058494   0.0043301  -0.0123039   0.0023225  -0.0081659  -0.0011136
           13          14          15          16          17          18
    1  -0.0086670   0.0033653   0.0024678  -0.0022916   0.0005873  -0.0018223
    2  -0.0004926   0.0028740   0.0022080   0.0038852  -0.0044839  -0.0047965
    3   0.0036778  -0.0031477   0.0048329   0.0011579  -0.0022645   0.0059451
           19          20          21          22          23          24
    1  -0.0056695   0.0034139  -0.0012959   0.0018567   0.0004648  -0.0030268
    2  -0.0036009  -0.0062049  -0.0019315   0.0029253  -0.0008564   0.0027354
    3   0.0000473  -0.0008714  -0.0041672   0.0024003  -0.0049911   0.0033703
           25          26          27          28          29          30
    1   0.0076571   0.0008869  -0.0038670   0.0008887  -0.0023304   0.0044920
    2  -0.0065834  -0.0017880   0.0002615   0.0047137  -0.0088442  -0.0025663
    3  -0.0065374   0.0042070  -0.0023548   0.0013741   0.0115079  -0.0015254
           31          32          33          34          35          36
    1  -0.0012559  -0.0041729   0.0216183  -0.0288245   0.0297254  -0.0114160
    2   0.0041395   0.0040043  -0.0002364  -0.0004843  -0.0001654   0.0084821
    3  -0.0023096  -0.0024992   0.0054628  -0.0080011   0.0073939   0.0044431
           37          38          39          40          41          42
    1   0.0020775  -0.0000949  -0.0001800  -0.0048114  -0.0027737   0.0057861
    2  -0.0080490   0.0038061   0.0039989   0.0036031   0.0050355  -0.0045059
    3  -0.0066205   0.0034773   0.0036087   0.0019567   0.0035202   0.0022276
           43          44          45          46          47          48
    1   0.0013082   0.0008358   0.0019466   0.0046388   0.0029986  -0.0012416
    2   0.0043860  -0.0037097   0.0034608  -0.0038459   0.0028889  -0.0047992
    3   0.0036706   0.0016023  -0.0045245  -0.0022817   0.0034517   0.0030785
           49          50          51          52          53
    1   0.0006986   0.1205688  -0.0029832  -0.0727796  -0.0104984
    2   0.0024662  -0.0273772   0.0095428  -0.0621732   0.0007048
    3  -0.0051301  -0.0599303   0.0005690   0.0934065  -0.0074336
 Max gradient component =       1.206E-01
 RMS gradient           =       1.818E-02
 Gradient time:  CPU 53.13 s  wall 7.22 s
 Geometry Optimization Parameters
   NAtoms,    NIC,     NZ,  NCons,   NDum,   NFix, NCnnct, MaxDiis
       53     393       0       0       0       0       0       0


** GEOMETRY OPTIMIZATION IN DELOCALIZED INTERNAL COORDINATES **
   Searching for a Minimum

   Optimization Cycle:   1

                       Coordinates (Angstroms)
     ATOM                X               Y               Z
      1  C         3.7996178268   -0.0338951533   -0.3543983821
      2  C         2.8690172885    0.8021495451    0.1423787758
      3  C         1.4551729669    0.7000406272   -0.3076227498
      4  C         0.4218021057    1.4729343888    0.1108904330
      5  C        -0.9494421216    1.1959148971   -0.4905907246
      6  C        -2.0849355823    1.0199947830    0.4625089268
      7  H         3.1643505816    1.5415755152    0.8690526171
      8  H         1.2423304225   -0.0761455835   -1.0395370115
      9  C        -2.9065778983   -0.2597197956    0.2393062406
     10  C        -2.4223289809   -1.4382279015    0.7644654984
     11  C        -3.1960564269   -2.7414465955    0.7051606580
     12  C        -4.6803494508   -2.5525037947    0.4139908153
     13  H        -3.1379074533   -3.2697259173    1.6818640873
     14  H        -2.7129571744   -3.3875026662   -0.0599499373
     15  C        -4.8170923876   -1.6569259537   -0.7955291028
     16  H        -5.1973746721   -2.0986979276    1.2843374850
     17  H        -5.1402782332   -3.5468428217    0.2267718690
     18  C        -4.2717464676   -0.2230644647   -0.5141287667
     19  H        -5.8770821969   -1.6063241906   -1.1298098498
     20  H        -4.2390053975   -2.1428470076   -1.6156164046
     21  C        -1.0841720872   -1.5608937473    1.4688595137
     22  H        -0.5031733575   -0.6270982046    1.5432224275
     23  H        -0.4545413295   -2.3000508452    0.9305838490
     24  H        -1.2466980137   -1.9204124659    2.5065634306
     25  C        -5.2870437792    0.5736297580    0.3372212975
     26  H        -5.4104375541    0.1287663965    1.3454493731
     27  H        -6.2816695164    0.5969192772   -0.1579858486
     28  H        -4.9634581663    1.6242914137    0.4791059438
     29  C        -4.1594382337    0.4369390391   -1.9127846302
     30  H        -3.4046716455   -0.0922342544   -2.5338515568
     31  H        -3.8920795742    1.5060683237   -1.8865997202
     32  H        -5.1367188671    0.3912651514   -2.4416412665
     33  C         5.2433974634   -0.0075820997    0.0387005630
     34  C         6.0649106434   -0.9143537964   -0.5478474791
     35  C         7.5236766821   -1.0630099376   -0.3045521388
     36  C         8.2273596828   -1.9994412331   -0.9472564199
     37  H         8.0631706843   -0.4323912837    0.3880790902
     38  H         5.6307107037   -1.6060921343   -1.2672239046
     39  H         7.7563671810   -2.6714287220   -1.6586821201
     40  H         9.2922430190   -2.1002976450   -0.7629122350
     41  H         3.4844763428   -0.7747990894   -1.0862871332
     42  C         0.5641977334    2.6002015613    1.1190664524
     43  H         1.5883176223    2.7661186387    1.4898652509
     44  H        -0.0622419523    2.4060084312    2.0111393872
     45  H         0.2333599918    3.5511309556    0.6524321807
     46  C         5.7170016257    1.0123840101    1.0568078757
     47  H         6.7920750812    0.9707108522    1.2956737381
     48  H         5.1686098596    0.8614552947    2.0102256039
     49  H         5.5105250153    2.0345532512    0.6759694471
     50  O        -2.6188335154    2.1863257922   -0.0933118728
     51  H        -1.8811277969    1.2283508780    1.5328693191
     52  O        -1.5782931361    2.3660427540   -0.9160250199
     53  H        -0.9699240084    0.4479831911   -1.3162929075
   Point Group: c1    Number of degrees of freedom:   153


   Energy is   -968.075974258


 Attempting to Generate Delocalized Internal Coordinates

153 Hessian modes will be used to form the next step
  Hessian Eigenvalues:
     0.002481    0.003084    0.003929    0.004275    0.006167    0.006663
     0.006904    0.006935    0.007784    0.009138    0.009633    0.010710
     0.010867    0.010982    0.012021    0.012879    0.013743    0.014099
     0.019607    0.019637    0.019705    0.020045    0.020385    0.028109
     0.028147    0.029547    0.030861    0.030861    0.030896    0.032432
     0.037420    0.039121    0.045429    0.047005    0.049737    0.051216
     0.052030    0.053988    0.054142    0.054773    0.055076    0.060357
     0.060615    0.067829    0.067875    0.068298    0.068557    0.073186
     0.074298    0.074491    0.074878    0.077252    0.077817    0.082631
     0.089236    0.094674    0.097840    0.099300    0.120186    0.121533
     0.126181    0.132898    0.159857    0.159999    0.160000    0.160000
     0.160000    0.160000    0.160000    0.160000    0.160000    0.160000
     0.160000    0.160000    0.160000    0.160000    0.160000    0.160000
     0.160000    0.160000    0.160000    0.160000    0.160000    0.160000
     0.160000    0.186291    0.204416    0.220000    0.220000    0.220000
     0.220000    0.220000    0.228181    0.249795    0.249962    0.249977
     0.249978    0.250000    0.250000    0.261417    0.265966    0.275976
     0.279875    0.287800    0.290669    0.298569    0.301013    0.302956
     0.304574    0.304610    0.306383    0.306610    0.320939    0.321517
     0.323261    0.323746    0.323955    0.324070    0.324422    0.324482
     0.324597    0.325796    0.325801    0.325809    0.325811    0.326302
     0.326641    0.326707    0.327170    0.327400    0.327614    0.328963
     0.334222    0.334291    0.334533    0.334899    0.337537    0.338507
     0.350025    0.350357    0.350597    0.352719    0.353476    0.358787
     0.362403    0.395699    0.461815    0.477240    0.521490    0.535806
     0.536400    0.558764    0.580897

 Minimum Search - Taking Simple RFO Step
 Searching for Lamda that Minimizes Along All modes
 Value Taken    Lamda =  -0.06293253
 Calculated Step too Large.  Step scaled by  0.729785
 Step Taken.  Stepsize is  0.300000

                             Maximum     Tolerance    Cnvgd?
         Gradient           0.098076      0.000300      NO
         Displacement       0.126181      0.001200      NO
         Energy change     *********      0.000001      NO


 New Cartesian Coordinates Obtained by Inverse Iteration

 Displacement from previous Coordinates is:  0.823300
 ----------------------------------------------------------------
             Standard Nuclear Orientation (Angstroms)
    I     Atom           X                Y                Z
 ----------------------------------------------------------------
    1      C       3.8566680268    -0.0087263694    -0.3477407648
    2      C       2.9027385250     0.8231221605     0.1536135744
    3      C       1.5023171169     0.7351427825    -0.2865204040
    4      C       0.4509262639     1.4975003171     0.1331584957
    5      C      -0.9192388532     1.2216078279    -0.4709389280
    6      C      -2.1260289671     1.0016592358     0.4693597015
    7      H       3.1816331612     1.5657336188     0.8948067173
    8      H       1.3004193031    -0.0382362823    -1.0319988054
    9      C      -2.9425338315    -0.2876517520     0.2477510659
   10      C      -2.4682932636    -1.4508538474     0.7966743715
   11      C      -3.2353719687    -2.7637888553     0.7443299187
   12      C      -4.7220969564    -2.5762148393     0.4181184063
   13      H      -3.1625259046    -3.2778416309     1.7242211154
   14      H      -2.7478424826    -3.4240039044    -0.0028284164
   15      C      -4.8370064092    -1.6726999339    -0.8069770006
   16      H      -5.2465494068    -2.1204567424     1.2784528423
   17      H      -5.1862810470    -3.5645881065     0.2343711046
   18      C      -4.2905989004    -0.2361753266    -0.5333570315
   19      H      -5.8829991618    -1.6049350691    -1.1641780844
   20      H      -4.2503375484    -2.1497091486    -1.6191777874
   21      C      -1.1409662095    -1.5642910547     1.5305530826
   22      H      -0.5651519841    -0.6307215521     1.5954446395
   23      H      -0.4968859950    -2.3098508159     1.0259166985
   24      H      -1.3111676175    -1.9155619842     2.5669780271
   25      C      -5.3239844763     0.5813069054     0.2909357680
   26      H      -5.4803846513     0.1510610207     1.2960959825
   27      H      -6.3019611987     0.6098838742    -0.2265705300
   28      H      -4.9922251325     1.6250216676     0.4273308300
   29      C      -4.1375053782     0.4196412340    -1.9380562009
   30      H      -3.3793251600    -0.1139094791    -2.5418557930
   31      H      -3.8594847941     1.4820504996    -1.9010781699
   32      H      -5.1004622373     0.3703136524    -2.4827905822
   33      C       5.2862231187     0.0024981063     0.0317371801
   34      C       6.1113336114    -0.9078342986    -0.5715701010
   35      C       7.5554407140    -1.0837332910    -0.3544954763
   36      C       8.2680759193    -2.0226383228    -1.0145130406
   37      H       8.0867179983    -0.4506664224     0.3534087521
   38      H       5.6696193723    -1.5914269275    -1.3007315434
   39      H       7.7982074612    -2.6896774517    -1.7380085141
   40      H       9.3376260053    -2.1362766750    -0.8389988786
   41      H       3.5576474728    -0.7514402737    -1.0914196391
   42      C       0.5501168613     2.6228301823     1.1445038634
   43      H       1.5702836706     2.7917598639     1.5158759976
   44      H      -0.0827096518     2.4238827070     2.0291900140
   45      H       0.2030688311     3.5677092212     0.6875457234
   46      C       5.7509052964     1.0162502571     1.0609963965
   47      H       6.8245070282     0.9591726428     1.2869981310
   48      H       5.2078294206     0.8691631343     2.0135363255
   49      H       5.5468467921     2.0431658097     0.7036178666
   50      O      -2.6877240530     2.2019618852    -0.0831491881
   51      H      -1.9413753036     1.1808287260     1.5466166164
   52      O      -1.5697334648     2.4197793483    -0.9194312061
   53      H      -0.8853664145     0.4786631701    -1.2936281549
 ----------------------------------------------------------------
 Molecular Point Group                 C1    NOp =  1
 Largest Abelian Subgroup              C1    NOp =  1
 Nuclear Repulsion Energy =  1874.2180551080 hartrees
 There are       86 alpha and       86 beta electrons
 Applying Cartesian multipole field
    Component          Value
    ---------          -----
     (2,0,0)        1.00000E-12
     (0,2,0)        2.00000E-11
     (0,0,2)       -3.00000E-11
 Nucleus-field energy     =     0.0000000274 hartrees
 Requested basis set is 6-31G(d,p)
 There are 182 shells and 495 basis functions
 A cutoff of  1.0D-11 yielded   8173 shell pairs
 There are     62174 function pairs
 Smallest overlap matrix eigenvalue = 9.77E-04
 Guess MOs from SCF MO coefficient file

 -----------------------------------------------------------------------
  General SCF calculation program by
  Eric Jon Sundstrom, Paul Horn, Yuezhi Mao, Dmitri Zuev, Alec White,
  David Stuck, Shaama M.S., Shane Yost, Joonho Lee, David Small,
  Daniel Levine, Susi Lehtola, Hugh Burton, Evgeny Epifanovsky
 -----------------------------------------------------------------------
 Exchange:  B88      Correlation:  LYP
 Using SG-1 standard quadrature grid
 using 8 threads for integral computing
 -------------------------------------------------------
 OpenMP Integral computing Module                
 Release: version 1.0, May 2013, Q-Chem Inc. Pittsburgh 
 -------------------------------------------------------
 -------------------------------------------------------
 OpenMP BLAS3 based DFT computing Module                
 Release: version 1.0, May 2013, Q-Chem Inc. Pittsburgh 
 -------------------------------------------------------
 A restricted SCF calculation will be
 performed using DIIS
 SCF converges when DIIS error is below 1.0e-08
 ---------------------------------------
  Cycle       Energy         DIIS error
 ---------------------------------------
    1    -968.1008983410      3.98e-04  
    2    -968.1085015825      1.08e-04  
    3    -968.1080747822      1.51e-04  
    4    -968.1086918088      6.25e-05  
    5    -968.1088354317      1.61e-05  
    6    -968.1088438846      5.61e-06  
    7    -968.1088448265      1.95e-06  
    8    -968.1088449281      8.63e-07  
    9    -968.1088449523      3.09e-07  
   10    -968.1088449555      7.68e-08  
   11    -968.1088449556      3.46e-08  
   12    -968.1088449557      1.10e-08  
   13    -968.1088449557      3.76e-09  Convergence criterion met
 ---------------------------------------
 SCF time:   CPU 368.79s  wall 46.00s 
 SCF   energy in the final basis set =     -968.1088449557
 Total energy in the final basis set =     -968.1088449557
 
 --------------------------------------------------------------
 
                    Orbital Energies (a.u.)
 --------------------------------------------------------------
 
 Alpha MOs
 -- Occupied --
-18.834 -18.833  -9.981  -9.981  -9.941  -9.937  -9.934  -9.932
 -9.932  -9.931  -9.930  -9.930  -9.928  -9.926  -9.925  -9.923
 -9.922  -9.921  -9.920  -9.914  -9.911  -9.904  -9.898  -1.050
 -0.795  -0.752  -0.744  -0.726  -0.698  -0.693  -0.680  -0.662
 -0.642  -0.616  -0.609  -0.598  -0.594  -0.587  -0.549  -0.525
 -0.503  -0.489  -0.483  -0.476  -0.469  -0.453  -0.448  -0.433
 -0.420  -0.412  -0.401  -0.389  -0.381  -0.377  -0.370  -0.369
 -0.365  -0.362  -0.358  -0.353  -0.344  -0.342  -0.338  -0.337
 -0.326  -0.323  -0.320  -0.315  -0.311  -0.305  -0.301  -0.296
 -0.294  -0.289  -0.287  -0.283  -0.282  -0.275  -0.266  -0.263
 -0.253  -0.240  -0.216  -0.186  -0.167  -0.156
 -- Virtual --
 -0.077  -0.025  -0.007   0.010   0.039   0.058   0.063   0.064
  0.067   0.072   0.078   0.088   0.091   0.094   0.102   0.104
  0.108   0.114   0.125   0.131   0.135   0.138   0.145   0.147
  0.148   0.150   0.151   0.158   0.160   0.169   0.171   0.174
  0.175   0.178   0.190   0.192   0.193   0.196   0.201   0.205
  0.210   0.213   0.219   0.224   0.231   0.241   0.253   0.256
  0.264   0.281   0.300   0.314   0.341   0.348   0.353   0.367
  0.395   0.397   0.408   0.437   0.442   0.457   0.463   0.470
  0.476   0.476   0.482   0.489   0.492   0.502   0.510   0.514
  0.526   0.529   0.535   0.537   0.543   0.550   0.557   0.562
  0.574   0.574   0.585   0.586   0.591   0.600   0.603   0.613
  0.624   0.628   0.631   0.633   0.644   0.655   0.662   0.668
  0.671   0.676   0.683   0.692   0.698   0.699   0.716   0.717
  0.743   0.749   0.752   0.753   0.760   0.763   0.765   0.768
  0.776   0.784   0.790   0.793   0.808   0.811   0.814   0.818
  0.821   0.830   0.835   0.837   0.844   0.848   0.854   0.856
  0.862   0.865   0.869   0.873   0.885   0.889   0.891   0.897
  0.899   0.905   0.907   0.915   0.919   0.923   0.941   0.948
  0.966   0.974   0.986   0.991   1.007   1.018   1.035   1.041
  1.051   1.059   1.083   1.085   1.092   1.119   1.131   1.139
  1.171   1.175   1.188   1.200   1.211   1.221   1.232   1.241
  1.256   1.261   1.266   1.278   1.281   1.299   1.316   1.331
  1.338   1.353   1.358   1.372   1.376   1.411   1.421   1.424
  1.439   1.442   1.448   1.457   1.474   1.486   1.506   1.516
  1.530   1.561   1.573   1.594   1.613   1.634   1.656   1.664
  1.676   1.678   1.695   1.703   1.704   1.711   1.724   1.737
  1.745   1.749   1.757   1.764   1.770   1.779   1.786   1.790
  1.796   1.800   1.806   1.815   1.822   1.832   1.847   1.850
  1.856   1.871   1.874   1.883   1.894   1.896   1.909   1.920
  1.935   1.937   1.946   1.955   1.970   1.975   1.979   1.983
  1.991   1.994   2.004   2.007   2.012   2.013   2.018   2.019
  2.025   2.034   2.039   2.049   2.054   2.058   2.064   2.071
  2.076   2.086   2.089   2.103   2.106   2.114   2.124   2.131
  2.142   2.153   2.165   2.172   2.179   2.195   2.200   2.222
  2.230   2.236   2.247   2.257   2.277   2.289   2.295   2.298
  2.302   2.312   2.328   2.333   2.337   2.352   2.355   2.359
  2.378   2.387   2.399   2.406   2.409   2.418   2.429   2.436
  2.448   2.452   2.467   2.477   2.489   2.507   2.517   2.527
  2.532   2.537   2.543   2.554   2.564   2.572   2.576   2.581
  2.600   2.607   2.616   2.625   2.633   2.640   2.645   2.649
  2.657   2.660   2.680   2.688   2.698   2.718   2.721   2.730
  2.738   2.748   2.758   2.768   2.777   2.783   2.787   2.788
  2.798   2.800   2.805   2.814   2.819   2.824   2.837   2.845
  2.864   2.873   2.899   2.900   2.936   2.960   2.977   2.987
  3.005   3.030   3.057   3.093   3.114   3.123   3.131   3.140
  3.159   3.185   3.188   3.224   3.248   3.298   3.304   3.315
  3.322   3.325   3.336   3.337   3.348   3.352   3.360   3.377
  3.385   3.388   3.403   3.415   3.433   3.435   3.475   3.477
  3.518   3.595   3.709   4.016   4.042   4.054   4.083   4.142
  4.178   4.199   4.274   4.297   4.378   4.404   4.412   4.434
  4.445   4.502   4.536   4.557   4.576   4.645   4.652   4.705
  4.803
 --------------------------------------------------------------
 
          Ground-State Mulliken Net Atomic Charges

     Atom                 Charge (a.u.)
  ----------------------------------------
      1 C                    -0.087642
      2 C                    -0.057345
      3 C                    -0.096913
      4 C                     0.134640
      5 C                     0.140462
      6 C                     0.110358
      7 H                     0.057296
      8 H                     0.052200
      9 C                     0.069235
     10 C                     0.081073
     11 C                    -0.194964
     12 C                    -0.159281
     13 H                     0.077529
     14 H                     0.087203
     15 C                    -0.138810
     16 H                     0.082676
     17 H                     0.066103
     18 C                     0.042447
     19 H                     0.066415
     20 H                     0.069859
     21 C                    -0.349221
     22 H                     0.098255
     23 H                     0.103465
     24 H                     0.099137
     25 C                    -0.289217
     26 H                     0.082231
     27 H                     0.081907
     28 H                     0.108217
     29 C                    -0.291657
     30 H                     0.075528
     31 H                     0.121398
     32 H                     0.075684
     33 C                     0.153739
     34 C                    -0.112919
     35 C                    -0.003658
     36 C                    -0.218309
     37 H                     0.059882
     38 H                     0.053563
     39 H                     0.081608
     40 H                     0.081822
     41 H                     0.053361
     42 C                    -0.353751
     43 H                     0.098676
     44 H                     0.105052
     45 H                     0.131628
     46 C                    -0.357969
     47 H                     0.097382
     48 H                     0.111417
     49 H                     0.113129
     50 O                    -0.293292
     51 H                     0.086503
     52 O                    -0.281056
     53 H                     0.074924
  ----------------------------------------
  Sum of atomic charges =    -0.000000

 -----------------------------------------------------------------
                    Cartesian Multipole Moments
 -----------------------------------------------------------------
    Charge (ESU x 10^10)
                -0.0000
    Dipole Moment (Debye)
         X       1.9663      Y      -1.8810      Z       1.4651
       Tot       3.0904
    Quadrupole Moments (Debye-Ang)
        XX    -135.3975     XY       7.3823     YY    -144.4591
        XZ       0.6334     YZ       6.3208     ZZ    -140.3716
    Octopole Moments (Debye-Ang^2)
       XXX      60.9735    XXY      -9.0053    XYY      10.6872
       YYY       2.3273    XXZ      19.3282    XYZ      15.7347
       YYZ       4.0372    XZZ      -7.4981    YZZ       2.1757
       ZZZ       3.2782
    Hexadecapole Moments (Debye-Ang^3)
      XXXX  -14643.0016   XXXY     -62.0339   XXYY   -2970.8668
      XYYY      17.6226   YYYY   -2316.9094   XXXZ     197.6352
      XXYZ     108.0788   XYYZ     -28.6214   YYYZ      20.8629
      XXZZ   -2753.2894   XYZZ     -23.0911   YYZZ    -522.3723
      XZZZ      28.3380   YZZZ      -4.5417   ZZZZ    -867.6606
 -----------------------------------------------------------------
 Calculating analytic gradient of the SCF energy
 Gradient of SCF Energy
            1           2           3           4           5           6
    1  -0.0180712   0.0179265  -0.0133307   0.0010672  -0.0226790   0.0072532
    2  -0.0015078   0.0040263  -0.0043894   0.0032910   0.0116109   0.0212134
    3  -0.0061028   0.0074656  -0.0072020   0.0045053  -0.0072522  -0.0063018
            7           8           9          10          11          12
    1   0.0008671   0.0000960  -0.0004721   0.0026002   0.0008748   0.0020788
    2  -0.0033600   0.0015054   0.0105763  -0.0100304   0.0002827   0.0054438
    3  -0.0026938   0.0023530  -0.0056746   0.0000685  -0.0040492   0.0010772
           13          14          15          16          17          18
    1  -0.0050142   0.0019642   0.0002772  -0.0008181   0.0006899  -0.0013997
    2  -0.0001276   0.0020038   0.0018667   0.0020693  -0.0025282  -0.0030146
    3   0.0020954  -0.0016915  -0.0001028   0.0001485  -0.0006880   0.0044024
           19          20          21          22          23          24
    1  -0.0024000   0.0017884   0.0001280   0.0003881   0.0001884  -0.0015405
    2  -0.0016100  -0.0033513  -0.0019597   0.0009633  -0.0000191   0.0018509
    3  -0.0003813   0.0001637  -0.0023079   0.0016776  -0.0024680   0.0016047
           25          26          27          28          29          30
    1   0.0036351   0.0004221  -0.0018071   0.0002028  -0.0012716   0.0019599
    2  -0.0036800  -0.0001563   0.0003507   0.0020530  -0.0053456  -0.0008026
    3  -0.0031580   0.0019341  -0.0007614   0.0008006   0.0060343  -0.0006976
           31          32          33          34          35          36
    1  -0.0008907  -0.0016887   0.0139503  -0.0170673   0.0146723  -0.0040780
    2   0.0025260   0.0029532   0.0003363  -0.0004511   0.0022545   0.0009573
    3  -0.0018807  -0.0012537   0.0039441  -0.0049622   0.0058573  -0.0002261
           37          38          39          40          41          42
    1   0.0013195   0.0009420  -0.0002166  -0.0014759  -0.0005442   0.0013225
    2  -0.0037637   0.0014257   0.0016517   0.0017381   0.0021143  -0.0023198
    3  -0.0031342   0.0016207   0.0014988   0.0011864   0.0016358   0.0010592
           43          44          45          46          47          48
    1  -0.0002151   0.0008659   0.0015386   0.0008069   0.0006577  -0.0003339
    2   0.0019911  -0.0016959   0.0019342  -0.0013377   0.0014503  -0.0024090
    3   0.0014399   0.0010667  -0.0021855  -0.0010291   0.0015222   0.0015140
           49          50          51          52          53
    1   0.0005601   0.0583197  -0.0033104  -0.0366415  -0.0040967
    2   0.0011791  -0.0111593   0.0047345  -0.0315730   0.0002379
    3  -0.0024320  -0.0292848   0.0016345   0.0438879  -0.0042769
 Max gradient component =       5.832E-02
 RMS gradient           =       8.874E-03
 Gradient time:  CPU 52.35 s  wall 7.10 s
 Geometry Optimization Parameters
   NAtoms,    NIC,     NZ,  NCons,   NDum,   NFix, NCnnct, MaxDiis
       53     393       0       0       0       0       0       0

 Cartesian Hessian Update
 Hessian Updated using BFGS Update


** GEOMETRY OPTIMIZATION IN DELOCALIZED INTERNAL COORDINATES **
   Searching for a Minimum

   Optimization Cycle:   2

                       Coordinates (Angstroms)
     ATOM                X               Y               Z
      1  C         3.8566680268   -0.0087263694   -0.3477407648
      2  C         2.9027385250    0.8231221605    0.1536135744
      3  C         1.5023171169    0.7351427825   -0.2865204040
      4  C         0.4509262639    1.4975003171    0.1331584957
      5  C        -0.9192388532    1.2216078279   -0.4709389280
      6  C        -2.1260289671    1.0016592358    0.4693597015
      7  H         3.1816331612    1.5657336188    0.8948067173
      8  H         1.3004193031   -0.0382362823   -1.0319988054
      9  C        -2.9425338315   -0.2876517520    0.2477510659
     10  C        -2.4682932636   -1.4508538474    0.7966743715
     11  C        -3.2353719687   -2.7637888553    0.7443299187
     12  C        -4.7220969564   -2.5762148393    0.4181184063
     13  H        -3.1625259046   -3.2778416309    1.7242211154
     14  H        -2.7478424826   -3.4240039044   -0.0028284164
     15  C        -4.8370064092   -1.6726999339   -0.8069770006
     16  H        -5.2465494068   -2.1204567424    1.2784528423
     17  H        -5.1862810470   -3.5645881065    0.2343711046
     18  C        -4.2905989004   -0.2361753266   -0.5333570315
     19  H        -5.8829991618   -1.6049350691   -1.1641780844
     20  H        -4.2503375484   -2.1497091486   -1.6191777874
     21  C        -1.1409662095   -1.5642910547    1.5305530826
     22  H        -0.5651519841   -0.6307215521    1.5954446395
     23  H        -0.4968859950   -2.3098508159    1.0259166985
     24  H        -1.3111676175   -1.9155619842    2.5669780271
     25  C        -5.3239844763    0.5813069054    0.2909357680
     26  H        -5.4803846513    0.1510610207    1.2960959825
     27  H        -6.3019611987    0.6098838742   -0.2265705300
     28  H        -4.9922251325    1.6250216676    0.4273308300
     29  C        -4.1375053782    0.4196412340   -1.9380562009
     30  H        -3.3793251600   -0.1139094791   -2.5418557930
     31  H        -3.8594847941    1.4820504996   -1.9010781699
     32  H        -5.1004622373    0.3703136524   -2.4827905822
     33  C         5.2862231187    0.0024981063    0.0317371801
     34  C         6.1113336114   -0.9078342986   -0.5715701010
     35  C         7.5554407140   -1.0837332910   -0.3544954763
     36  C         8.2680759193   -2.0226383228   -1.0145130406
     37  H         8.0867179983   -0.4506664224    0.3534087521
     38  H         5.6696193723   -1.5914269275   -1.3007315434
     39  H         7.7982074612   -2.6896774517   -1.7380085141
     40  H         9.3376260053   -2.1362766750   -0.8389988786
     41  H         3.5576474728   -0.7514402737   -1.0914196391
     42  C         0.5501168613    2.6228301823    1.1445038634
     43  H         1.5702836706    2.7917598639    1.5158759976
     44  H        -0.0827096518    2.4238827070    2.0291900140
     45  H         0.2030688311    3.5677092212    0.6875457234
     46  C         5.7509052964    1.0162502571    1.0609963965
     47  H         6.8245070282    0.9591726428    1.2869981310
     48  H         5.2078294206    0.8691631343    2.0135363255
     49  H         5.5468467921    2.0431658097    0.7036178666
     50  O        -2.6877240530    2.2019618852   -0.0831491881
     51  H        -1.9413753036    1.1808287260    1.5466166164
     52  O        -1.5697334648    2.4197793483   -0.9194312061
     53  H        -0.8853664145    0.4786631701   -1.2936281549
   Point Group: c1    Number of degrees of freedom:   153


   Energy is   -968.108844956

 Hessian Updated using BFGS Update

135 Hessian modes will be used to form the next step
  Hessian Eigenvalues:
     0.002481    0.003084    0.003928    0.004274    0.006167    0.006663
     0.006904    0.006935    0.007784    0.009139    0.009633    0.010715
     0.010867    0.010982    0.012022    0.012887    0.013743    0.014113
     0.019607    0.019637    0.019705    0.020045    0.020385    0.028109
     0.028150    0.029547    0.030861    0.030861    0.030898    0.032453
     0.037487    0.039125    0.045527    0.046999    0.049730    0.051211
     0.052048    0.053982    0.054147    0.054774    0.055068    0.060334
     0.060603    0.067829    0.067857    0.068298    0.068517    0.073140
     0.074290    0.074475    0.074814    0.077224    0.077866    0.082748
     0.089223    0.094679    0.097804    0.100493    0.120143    0.122140
     0.126178    0.132915    0.158576    0.159870    0.159999    0.160000
     0.160000    0.161972    0.186373    0.204565    0.218125    0.220000
     0.220000    0.220796    0.228169    0.249447    0.249849    0.249970
     0.249981    0.249997    0.252423    0.261341    0.265823    0.275965
     0.279727    0.287662    0.290391    0.296802    0.299180    0.302760
     0.304592    0.306322    0.306600    0.315194    0.320984    0.321593
     0.322436    0.323385    0.323883    0.324005    0.324101    0.324496
     0.324543    0.324978    0.325803    0.325805    0.325811    0.326086
     0.326402    0.326710    0.326917    0.327410    0.328264    0.328986
     0.332594    0.334330    0.334403    0.334699    0.335457    0.338105
     0.349987    0.350345    0.350569    0.352782    0.353715    0.358806
     0.362348    0.395661    0.425378    0.476726    0.493214    0.535901
     0.537532    0.559771    0.584185

 Minimum Search - Taking Simple RFO Step
 Searching for Lamda that Minimizes Along All modes
 Value Taken    Lamda =  -0.01922335
 Calculated Step too Large.  Step scaled by  0.871489
 Step Taken.  Stepsize is  0.300000

                             Maximum     Tolerance    Cnvgd?
         Gradient           0.047061      0.000300      NO
         Displacement       0.123193      0.001200      NO
         Energy change     -0.032871      0.000001      NO


 New Cartesian Coordinates Obtained by Inverse Iteration

 Displacement from previous Coordinates is:  1.365118
 ----------------------------------------------------------------
             Standard Nuclear Orientation (Angstroms)
    I     Atom           X                Y                Z
 ----------------------------------------------------------------
    1      C       3.8558226339     0.0153866385    -0.3502489603
    2      C       2.8883330182     0.8307233741     0.1732789572
    3      C       1.5050558809     0.7681644434    -0.2582621781
    4      C       0.4509067982     1.5185752840     0.1847925255
    5      C      -0.9089567101     1.2626256810    -0.4216250763
    6      C      -2.1468545172     0.9956402026     0.4962270265
    7      H       3.1578692309     1.5570398018     0.9419686117
    8      H       1.2983283060     0.0211652614    -1.0347678870
    9      C      -2.9473730102    -0.2972669312     0.2609662372
   10      C      -2.4922951311    -1.4342801695     0.8603334850
   11      C      -3.2502742327    -2.7577065184     0.8199570508
   12      C      -4.7282690145    -2.5855781597     0.4279091093
   13      H      -3.1801465491    -3.2431952286     1.8115399347
   14      H      -2.7439929666    -3.4434876174     0.1111136347
   15      C      -4.7952657584    -1.7006347851    -0.8244250558
   16      H      -5.2818594196    -2.1165322674     1.2599206847
   17      H      -5.1920650332    -3.5709250251     0.2477549990
   18      C      -4.2565134665    -0.2550935704    -0.5811146405
   19      H      -5.8224985011    -1.6311123353    -1.2223316591
   20      H      -4.1835958580    -2.1834970356    -1.6093711453
   21      C      -1.1903157885    -1.5167829802     1.6469262580
   22      H      -0.6186440591    -0.5808930546     1.6881513996
   23      H      -0.5259559221    -2.2792875153     1.2012847298
   24      H      -1.3854617095    -1.8391699039     2.6864675597
   25      C      -5.3287062858     0.5953419472     0.1663821383
   26      H      -5.5426265466     0.1946733167     1.1703585842
   27      H      -6.2737248872     0.6094027744    -0.4037805918
   28      H      -4.9962160634     1.6376951726     0.2842794274
   29      C      -4.0285086710     0.3532430530    -2.0013329890
   30      H      -3.2472317136    -0.2024938481    -2.5470682059
   31      H      -3.7442722297     1.4104365266    -1.9732730514
   32      H      -4.9628852616     0.2733331399    -2.5848247834
   33      C       5.2706571943     0.0008386481     0.0093664886
   34      C       6.0900714524    -0.8989821870    -0.6313928935
   35      C       7.5165838695    -1.0963451831    -0.4418936102
   36      C       8.2376811791    -2.0149755749    -1.1319774982
   37      H       8.0380478193    -0.4759825519     0.2921186187
   38      H       5.6300751652    -1.5544841480    -1.3803042220
   39      H       7.7714360172    -2.6627016311    -1.8790090613
   40      H       9.3093263539    -2.1387502953    -0.9662635717
   41      H       3.5566420424    -0.7069756008    -1.1189066434
   42      C       0.5352888619     2.6167654377     1.2243287170
   43      H       1.5569737036     2.7744429824     1.5955867150
   44      H      -0.1019522152     2.3948370035     2.0990139252
   45      H       0.1729413726     3.5669215486     0.7994270569
   46      C       5.7575743192     0.9776455342     1.0652324832
   47      H       6.8333402105     0.8893444814     1.2655133543
   48      H       5.2271524314     0.8182415482     2.0196130696
   49      H       5.5632878547     2.0180825973     0.7530274000
   50      O      -2.7372404282     2.2328831309    -0.0174654691
   51      H      -1.9540096980     1.1333726510     1.5744424102
   52      O      -1.5624396292     2.4995450482    -0.8626924352
   53      H      -0.8482108917     0.5385663839    -1.2528259959
 ----------------------------------------------------------------
 Molecular Point Group                 C1    NOp =  1
 Largest Abelian Subgroup              C1    NOp =  1
 Nuclear Repulsion Energy =  1869.8893509945 hartrees
 There are       86 alpha and       86 beta electrons
 Applying Cartesian multipole field
    Component          Value
    ---------          -----
     (2,0,0)        1.00000E-12
     (0,2,0)        2.00000E-11
     (0,0,2)       -3.00000E-11
 Nucleus-field energy     =     0.0000000262 hartrees
 Requested basis set is 6-31G(d,p)
 There are 182 shells and 495 basis functions
 A cutoff of  1.0D-11 yielded   8161 shell pairs
 There are     62073 function pairs
 Smallest overlap matrix eigenvalue = 1.03E-03
 Guess MOs from SCF MO coefficient file

 -----------------------------------------------------------------------
  General SCF calculation program by
  Eric Jon Sundstrom, Paul Horn, Yuezhi Mao, Dmitri Zuev, Alec White,
  David Stuck, Shaama M.S., Shane Yost, Joonho Lee, David Small,
  Daniel Levine, Susi Lehtola, Hugh Burton, Evgeny Epifanovsky
 -----------------------------------------------------------------------
 Exchange:  B88      Correlation:  LYP
 Using SG-1 standard quadrature grid
 using 8 threads for integral computing
 -------------------------------------------------------
 OpenMP Integral computing Module                
 Release: version 1.0, May 2013, Q-Chem Inc. Pittsburgh 
 -------------------------------------------------------
 -------------------------------------------------------
 OpenMP BLAS3 based DFT computing Module                
 Release: version 1.0, May 2013, Q-Chem Inc. Pittsburgh 
 -------------------------------------------------------
 A restricted SCF calculation will be
 performed using DIIS
 SCF converges when DIIS error is below 1.0e-08
 ---------------------------------------
  Cycle       Energy         DIIS error
 ---------------------------------------
    1    -968.1072842142      4.58e-04  
    2    -968.1199015931      7.14e-05  
    3    -968.1194929434      1.26e-04  
    4    -968.1199490630      5.17e-05  
    5    -968.1200490830      1.65e-05  
    6    -968.1200581770      5.32e-06  
    7    -968.1200590085      2.05e-06  
    8    -968.1200591197      9.34e-07  
    9    -968.1200591442      2.41e-07  
   10    -968.1200591456      1.18e-07  
   11    -968.1200591461      2.82e-08  
   12    -968.1200591461      1.28e-08  
   13    -968.1200591461      3.82e-09  Convergence criterion met
 ---------------------------------------
 SCF time:   CPU 367.96s  wall 46.00s 
 SCF   energy in the final basis set =     -968.1200591461
 Total energy in the final basis set =     -968.1200591461
 
 --------------------------------------------------------------
 
                    Orbital Energies (a.u.)
 --------------------------------------------------------------
 
 Alpha MOs
 -- Occupied --
-18.834 -18.834  -9.982  -9.981  -9.942  -9.938  -9.934  -9.933
 -9.933  -9.932  -9.931  -9.931  -9.928  -9.927  -9.925  -9.924
 -9.923  -9.921  -9.921  -9.915  -9.911  -9.902  -9.899  -1.016
 -0.793  -0.751  -0.746  -0.728  -0.699  -0.694  -0.679  -0.663
 -0.639  -0.617  -0.609  -0.598  -0.594  -0.588  -0.553  -0.527
 -0.505  -0.490  -0.483  -0.475  -0.467  -0.447  -0.439  -0.430
 -0.420  -0.411  -0.401  -0.389  -0.381  -0.377  -0.371  -0.368
 -0.364  -0.360  -0.358  -0.352  -0.345  -0.344  -0.340  -0.336
 -0.326  -0.323  -0.321  -0.315  -0.311  -0.304  -0.301  -0.295
 -0.293  -0.290  -0.288  -0.284  -0.280  -0.277  -0.266  -0.263
 -0.254  -0.240  -0.218  -0.187  -0.168  -0.161
 -- Virtual --
 -0.082  -0.036  -0.012  -0.002   0.038   0.055   0.062   0.064
  0.068   0.072   0.078   0.087   0.090   0.095   0.102   0.104
  0.107   0.113   0.125   0.129   0.136   0.138   0.145   0.148
  0.149   0.150   0.151   0.158   0.161   0.170   0.170   0.173
  0.176   0.178   0.191   0.192   0.195   0.196   0.202   0.204
  0.208   0.214   0.219   0.224   0.232   0.239   0.251   0.253
  0.263   0.281   0.295   0.315   0.343   0.344   0.354   0.368
  0.395   0.400   0.411   0.437   0.440   0.458   0.464   0.468
  0.474   0.477   0.483   0.489   0.492   0.502   0.507   0.515
  0.524   0.531   0.534   0.536   0.542   0.552   0.556   0.559
  0.569   0.572   0.584   0.587   0.590   0.598   0.601   0.613
  0.625   0.625   0.630   0.632   0.642   0.652   0.661   0.667
  0.669   0.675   0.682   0.693   0.697   0.698   0.716   0.717
  0.742   0.751   0.752   0.754   0.761   0.763   0.766   0.767
  0.776   0.784   0.792   0.797   0.808   0.812   0.815   0.818
  0.821   0.829   0.834   0.839   0.845   0.848   0.856   0.859
  0.863   0.866   0.871   0.875   0.883   0.888   0.892   0.897
  0.902   0.905   0.908   0.916   0.922   0.925   0.941   0.951
  0.966   0.972   0.986   0.991   1.005   1.018   1.032   1.040
  1.048   1.063   1.077   1.083   1.090   1.115   1.135   1.143
  1.166   1.176   1.187   1.206   1.212   1.220   1.233   1.240
  1.258   1.259   1.262   1.278   1.283   1.295   1.316   1.328
  1.337   1.354   1.360   1.374   1.381   1.414   1.421   1.428
  1.438   1.440   1.447   1.461   1.475   1.488   1.508   1.513
  1.532   1.558   1.567   1.592   1.612   1.630   1.651   1.664
  1.670   1.686   1.693   1.697   1.704   1.720   1.724   1.734
  1.745   1.749   1.754   1.762   1.770   1.776   1.780   1.786
  1.792   1.795   1.800   1.806   1.818   1.829   1.835   1.850
  1.852   1.858   1.869   1.874   1.879   1.890   1.901   1.909
  1.928   1.929   1.944   1.950   1.969   1.975   1.982   1.984
  1.992   1.993   2.001   2.008   2.011   2.016   2.017   2.022
  2.028   2.035   2.042   2.045   2.050   2.055   2.061   2.065
  2.073   2.083   2.088   2.096   2.102   2.116   2.125   2.127
  2.136   2.144   2.158   2.164   2.170   2.182   2.198   2.210
  2.228   2.236   2.242   2.249   2.268   2.287   2.290   2.292
  2.299   2.304   2.314   2.328   2.335   2.348   2.351   2.355
  2.371   2.382   2.397   2.402   2.406   2.419   2.427   2.436
  2.444   2.451   2.470   2.477   2.487   2.506   2.512   2.526
  2.530   2.533   2.542   2.551   2.561   2.574   2.575   2.580
  2.596   2.604   2.617   2.626   2.635   2.638   2.644   2.648
  2.658   2.660   2.678   2.684   2.697   2.715   2.719   2.721
  2.733   2.745   2.756   2.769   2.777   2.784   2.784   2.788
  2.796   2.801   2.809   2.815   2.822   2.823   2.832   2.846
  2.863   2.877   2.896   2.906   2.941   2.966   2.980   2.988
  3.008   3.031   3.065   3.111   3.121   3.131   3.136   3.145
  3.168   3.176   3.189   3.229   3.253   3.300   3.308   3.309
  3.324   3.329   3.341   3.343   3.355   3.355   3.366   3.378
  3.389   3.390   3.404   3.418   3.425   3.436   3.476   3.479
  3.519   3.594   3.671   4.016   4.041   4.053   4.082   4.137
  4.172   4.195   4.272   4.292   4.375   4.399   4.405   4.432
  4.442   4.491   4.531   4.549   4.575   4.638   4.656   4.706
  4.767
 --------------------------------------------------------------
 
          Ground-State Mulliken Net Atomic Charges

     Atom                 Charge (a.u.)
  ----------------------------------------
      1 C                    -0.090504
      2 C                    -0.056937
      3 C                    -0.094550
      4 C                     0.137255
      5 C                     0.132170
      6 C                     0.110294
      7 H                     0.056610
      8 H                     0.052464
      9 C                     0.079708
     10 C                     0.078405
     11 C                    -0.196129
     12 C                    -0.160197
     13 H                     0.077728
     14 H                     0.087837
     15 C                    -0.141752
     16 H                     0.083543
     17 H                     0.067851
     18 C                     0.040375
     19 H                     0.066817
     20 H                     0.070637
     21 C                    -0.350423
     22 H                     0.098492
     23 H                     0.104691
     24 H                     0.099687
     25 C                    -0.291471
     26 H                     0.082280
     27 H                     0.081717
     28 H                     0.112343
     29 C                    -0.293788
     30 H                     0.076443
     31 H                     0.122693
     32 H                     0.077853
     33 C                     0.156899
     34 C                    -0.109639
     35 C                    -0.003024
     36 C                    -0.221383
     37 H                     0.059157
     38 H                     0.052978
     39 H                     0.082418
     40 H                     0.084149
     41 H                     0.052864
     42 C                    -0.353382
     43 H                     0.097010
     44 H                     0.105597
     45 H                     0.133900
     46 C                    -0.358899
     47 H                     0.097323
     48 H                     0.111802
     49 H                     0.113719
     50 O                    -0.301904
     51 H                     0.088679
     52 O                    -0.286379
     53 H                     0.075975
  ----------------------------------------
  Sum of atomic charges =    -0.000000

 -----------------------------------------------------------------
                    Cartesian Multipole Moments
 -----------------------------------------------------------------
    Charge (ESU x 10^10)
                -0.0000
    Dipole Moment (Debye)
         X       2.1323      Y      -2.1148      Z       1.4453
       Tot       3.3329
    Quadrupole Moments (Debye-Ang)
        XX    -134.8269     XY       7.6284     YY    -145.2079
        XZ       0.5746     YZ       6.0749     ZZ    -139.9061
    Octopole Moments (Debye-Ang^2)
       XXX      66.5870    XXY     -14.4787    XYY      11.6798
       YYY      -2.3686    XXZ      15.4599    XYZ      16.4795
       YYZ       4.0614    XZZ      -6.9986    YZZ       1.0772
       ZZZ       1.5860
    Hexadecapole Moments (Debye-Ang^3)
      XXXX  -14516.8808   XXXY     -85.3742   XXYY   -2960.2538
      XYYY      20.2232   YYYY   -2332.2040   XXXZ     212.2362
      XXYZ     107.0248   XYYZ     -16.9873   YYYZ       9.2278
      XXZZ   -2736.2567   XYZZ     -27.7319   YYZZ    -532.2676
      XZZZ      63.6945   YZZZ     -14.9001   ZZZZ    -926.5027
 -----------------------------------------------------------------
 Calculating analytic gradient of the SCF energy
 Gradient of SCF Energy
            1           2           3           4           5           6
    1  -0.0052550   0.0040176  -0.0040893   0.0025437  -0.0059867   0.0012216
    2  -0.0000727   0.0009541  -0.0003378   0.0007042   0.0042391   0.0068176
    3  -0.0015006   0.0014962  -0.0011434   0.0015346  -0.0043377   0.0017433
            7           8           9          10          11          12
    1  -0.0001407   0.0003013   0.0007242   0.0006461   0.0008801  -0.0008090
    2  -0.0006302  -0.0000050   0.0004432  -0.0007821  -0.0008984   0.0010488
    3  -0.0005932   0.0006292  -0.0022114  -0.0018894  -0.0006942   0.0008981
           13          14          15          16          17          18
    1  -0.0017633   0.0005269  -0.0001037   0.0002525   0.0003159  -0.0009837
    2   0.0001234   0.0009855   0.0009098   0.0006004  -0.0005303  -0.0007693
    3   0.0003530  -0.0003956  -0.0015841  -0.0002037   0.0001624   0.0023339
           19          20          21          22          23          24
    1  -0.0000052   0.0006033   0.0006706  -0.0001089   0.0000112  -0.0003927
    2  -0.0003721  -0.0006794  -0.0010058   0.0008324   0.0003201   0.0007042
    3  -0.0002761   0.0006809  -0.0010424   0.0006932  -0.0005013   0.0001869
           25          26          27          28          29          30
    1   0.0007946   0.0001384  -0.0002028  -0.0001501  -0.0009425   0.0003474
    2  -0.0014506   0.0005366   0.0001580   0.0006565  -0.0013812   0.0000268
    3  -0.0005948   0.0004004   0.0000377   0.0001519   0.0009012  -0.0000004
           31          32          33          34          35          36
    1  -0.0007186  -0.0004925   0.0050365  -0.0048659   0.0025318  -0.0012253
    2  -0.0004279   0.0008507  -0.0005981   0.0006193   0.0009849  -0.0002078
    3  -0.0009450  -0.0003597   0.0007161  -0.0006454   0.0016556  -0.0005037
           37          38          39          40          41          42
    1   0.0002266   0.0006785  -0.0001675  -0.0001662   0.0003749  -0.0012145
    2  -0.0005841   0.0000803   0.0003705   0.0004896   0.0003190  -0.0006980
    3  -0.0005556   0.0002332   0.0003038   0.0004153   0.0003714  -0.0002354
           43          44          45          46          47          48
    1   0.0001550   0.0003609   0.0007290  -0.0007830   0.0004406   0.0001649
    2   0.0004178  -0.0003577   0.0004029  -0.0002132   0.0002372  -0.0006186
    3   0.0003248   0.0001914  -0.0004048  -0.0003672   0.0002339   0.0001117
           49          50          51          52          53
    1   0.0002859   0.0251954  -0.0020794  -0.0167672  -0.0007616
    2   0.0000180  -0.0013189   0.0012420  -0.0122602   0.0001066
    3  -0.0005018  -0.0129684   0.0006979   0.0175134  -0.0005167
 Max gradient component =       2.520E-02
 RMS gradient           =       3.429E-03
 Gradient time:  CPU 52.36 s  wall 7.11 s
 Geometry Optimization Parameters
   NAtoms,    NIC,     NZ,  NCons,   NDum,   NFix, NCnnct, MaxDiis
       53     393       0       0       0       0       0       0

 Cartesian Hessian Update
 Hessian Updated using BFGS Update


** GEOMETRY OPTIMIZATION IN DELOCALIZED INTERNAL COORDINATES **
   Searching for a Minimum

   Optimization Cycle:   3

                       Coordinates (Angstroms)
     ATOM                X               Y               Z
      1  C         3.8558226339    0.0153866385   -0.3502489603
      2  C         2.8883330182    0.8307233741    0.1732789572
      3  C         1.5050558809    0.7681644434   -0.2582621781
      4  C         0.4509067982    1.5185752840    0.1847925255
      5  C        -0.9089567101    1.2626256810   -0.4216250763
      6  C        -2.1468545172    0.9956402026    0.4962270265
      7  H         3.1578692309    1.5570398018    0.9419686117
      8  H         1.2983283060    0.0211652614   -1.0347678870
      9  C        -2.9473730102   -0.2972669312    0.2609662372
     10  C        -2.4922951311   -1.4342801695    0.8603334850
     11  C        -3.2502742327   -2.7577065184    0.8199570508
     12  C        -4.7282690145   -2.5855781597    0.4279091093
     13  H        -3.1801465491   -3.2431952286    1.8115399347
     14  H        -2.7439929666   -3.4434876174    0.1111136347
     15  C        -4.7952657584   -1.7006347851   -0.8244250558
     16  H        -5.2818594196   -2.1165322674    1.2599206847
     17  H        -5.1920650332   -3.5709250251    0.2477549990
     18  C        -4.2565134665   -0.2550935704   -0.5811146405
     19  H        -5.8224985011   -1.6311123353   -1.2223316591
     20  H        -4.1835958580   -2.1834970356   -1.6093711453
     21  C        -1.1903157885   -1.5167829802    1.6469262580
     22  H        -0.6186440591   -0.5808930546    1.6881513996
     23  H        -0.5259559221   -2.2792875153    1.2012847298
     24  H        -1.3854617095   -1.8391699039    2.6864675597
     25  C        -5.3287062858    0.5953419472    0.1663821383
     26  H        -5.5426265466    0.1946733167    1.1703585842
     27  H        -6.2737248872    0.6094027744   -0.4037805918
     28  H        -4.9962160634    1.6376951726    0.2842794274
     29  C        -4.0285086710    0.3532430530   -2.0013329890
     30  H        -3.2472317136   -0.2024938481   -2.5470682059
     31  H        -3.7442722297    1.4104365266   -1.9732730514
     32  H        -4.9628852616    0.2733331399   -2.5848247834
     33  C         5.2706571943    0.0008386481    0.0093664886
     34  C         6.0900714524   -0.8989821870   -0.6313928935
     35  C         7.5165838695   -1.0963451831   -0.4418936102
     36  C         8.2376811791   -2.0149755749   -1.1319774982
     37  H         8.0380478193   -0.4759825519    0.2921186187
     38  H         5.6300751652   -1.5544841480   -1.3803042220
     39  H         7.7714360172   -2.6627016311   -1.8790090613
     40  H         9.3093263539   -2.1387502953   -0.9662635717
     41  H         3.5566420424   -0.7069756008   -1.1189066434
     42  C         0.5352888619    2.6167654377    1.2243287170
     43  H         1.5569737036    2.7744429824    1.5955867150
     44  H        -0.1019522152    2.3948370035    2.0990139252
     45  H         0.1729413726    3.5669215486    0.7994270569
     46  C         5.7575743192    0.9776455342    1.0652324832
     47  H         6.8333402105    0.8893444814    1.2655133543
     48  H         5.2271524314    0.8182415482    2.0196130696
     49  H         5.5632878547    2.0180825973    0.7530274000
     50  O        -2.7372404282    2.2328831309   -0.0174654691
     51  H        -1.9540096980    1.1333726510    1.5744424102
     52  O        -1.5624396292    2.4995450482   -0.8626924352
     53  H        -0.8482108917    0.5385663839   -1.2528259959
   Point Group: c1    Number of degrees of freedom:   153


   Energy is   -968.120059146

 Hessian Updated using BFGS Update

136 Hessian modes will be used to form the next step
  Hessian Eigenvalues:
     0.002483    0.003083    0.003953    0.004361    0.006165    0.006663
     0.006902    0.006935    0.007797    0.009188    0.009633    0.010702
     0.010867    0.010982    0.012023    0.012878    0.013743    0.014126
     0.019607    0.019639    0.019706    0.020046    0.020385    0.028110
     0.028138    0.029549    0.030861    0.030861    0.030905    0.032446
     0.037785    0.039122    0.045534    0.047042    0.049857    0.051191
     0.051979    0.053984    0.054146    0.054768    0.055123    0.060496
     0.060737    0.067757    0.067830    0.068298    0.068559    0.073063
     0.074248    0.074435    0.075075    0.077059    0.077886    0.082893
     0.089146    0.094727    0.098107    0.100848    0.118607    0.120502
     0.126294    0.132511    0.157013    0.159871    0.159999    0.160000
     0.160117    0.163993    0.186326    0.204588    0.213186    0.220000
     0.220000    0.220225    0.220556    0.228092    0.244994    0.249933
     0.249969    0.249997    0.251529    0.252043    0.260979    0.264795
     0.276116    0.279793    0.285231    0.290333    0.295369    0.298878
     0.302662    0.304664    0.305831    0.306506    0.308329    0.320924
     0.321669    0.323023    0.323772    0.323894    0.323992    0.324231
     0.324508    0.324542    0.325277    0.325802    0.325805    0.325811
     0.326221    0.326466    0.326719    0.327045    0.327586    0.328920
     0.330206    0.333549    0.334372    0.334694    0.335078    0.337259
     0.338354    0.349921    0.350294    0.350566    0.352797    0.353882
     0.358822    0.361924    0.375056    0.396168    0.478375    0.484882
     0.535852    0.537226    0.559881    0.584636

 Minimum Search - Taking Simple RFO Step
 Searching for Lamda that Minimizes Along All modes
 Value Taken    Lamda =  -0.00509553
 Calculated Step too Large.  Step scaled by  0.744313
 Step Taken.  Stepsize is  0.300000

                             Maximum     Tolerance    Cnvgd?
         Gradient           0.020285      0.000300      NO
         Displacement       0.089183      0.001200      NO
         Energy change     -0.011214      0.000001      NO


 New Cartesian Coordinates Obtained by Inverse Iteration

 Displacement from previous Coordinates is:  1.986230
[...]
     32  H        -4.4140389042    0.1277901666   -2.7985871090
     33  C         5.1415887716   -0.0343798704   -0.1200912777
     34  C         5.9405380471   -0.8916053406   -0.8485119016
     35  C         7.3480830602   -1.1798126016   -0.6611751614
     36  C         8.0489257540   -2.0556263475   -1.4262643751
     37  H         7.8777421379   -0.6612950593    0.1446287420
     38  H         5.4617972811   -1.4333060958   -1.6742907676
     39  H         7.5776191237   -2.6065527172   -2.2454455955
     40  H         9.1096697120   -2.2460813968   -1.2527503217
     41  H         3.4282220545   -0.5024325317   -1.3650523325
     42  C         0.5410732775    2.5659657426    1.4401702305
     43  H         1.5758525491    2.9103368222    1.5724605522
     44  H         0.2327967136    2.0771958059    2.3831014438
     45  H        -0.1045435333    3.4473963041    1.3093695248
     46  C         5.6485521823    0.7804445590    1.0593613366
     47  H         6.7169538905    0.6252637953    1.2532469968
     48  H         5.1006082331    0.5200310606    1.9810336655
     49  H         5.4918798150    1.8588872554    0.8879486035
     50  O        -2.9146346497    2.2916649336    0.1542897824
     51  H        -1.9261275508    1.2010234889    1.6499045369
     52  O        -1.6586406541    2.7939741600   -0.5714752574
     53  H        -0.9590316048    0.9027049291   -1.2657572949
   Point Group: c1    Number of degrees of freedom:   153


   Energy is   -968.124187694

 Hessian Updated using BFGS Update

152 Hessian modes will be used to form the next step
  Hessian Eigenvalues:
     0.001161    0.002364    0.002980    0.003163    0.004177    0.006308
     0.006379    0.007486    0.007918    0.009127    0.009714    0.010900
     0.011014    0.012334    0.013869    0.014634    0.016537    0.019636
     0.019777    0.019925    0.020365    0.020487    0.024931    0.027706
     0.028372    0.029452    0.030861    0.030897    0.033319    0.033955
     0.038161    0.041104    0.045599    0.048846    0.050212    0.051566
     0.053872    0.054240    0.054963    0.055496    0.057705    0.060473
     0.063426    0.067537    0.068196    0.068282    0.069499    0.072230
     0.074279    0.074756    0.077607    0.078108    0.080826    0.083011
     0.088230    0.094642    0.098050    0.100587    0.120017    0.121134
     0.128587    0.153896    0.156150    0.157333    0.158963    0.159587
     0.159837    0.159914    0.159994    0.159999    0.160000    0.160000
     0.160010    0.160022    0.160074    0.160133    0.160215    0.160372
     0.160548    0.160706    0.161027    0.162652    0.164526    0.165299
     0.189266    0.205995    0.209220    0.219410    0.220055    0.220592
     0.222090    0.228292    0.233275    0.249400    0.250385    0.252637
     0.258917    0.260191    0.262595    0.276058    0.280006    0.280748
     0.290591    0.297681    0.299799    0.302201    0.304324    0.304687
     0.306596    0.311050    0.320697    0.321243    0.322886    0.323497
     0.323853    0.324044    0.324153    0.324535    0.324693    0.325048
     0.325780    0.325826    0.325916    0.326327    0.326487    0.326879
     0.327708    0.328126    0.329278    0.331238    0.333591    0.334432
     0.334787    0.335084    0.338201    0.340517    0.349888    0.350284
     0.350628    0.352600    0.352786    0.355566    0.358922    0.362611
     0.385917    0.446844    0.467010    0.535703    0.537157    0.559265
     0.584413    0.591621

 Minimum Search - Taking Simple RFO Step
 Searching for Lamda that Minimizes Along All modes
 Value Taken    Lamda =   0.00000000
 Step Taken.  Stepsize is  0.006999

                             Maximum     Tolerance    Cnvgd?
         Gradient           0.000044      0.000300     YES
         Displacement       0.002457      0.001200      NO
         Energy change     -0.000001      0.000001     YES

 Final energy is   -968.124187694478     


 ******************************
 **  OPTIMIZATION CONVERGED  **
 ******************************

                       Coordinates (Angstroms)
     ATOM                X               Y               Z
      1  C         3.7430300072    0.0913008572   -0.4973585677
      2  C         2.7925558479    0.8644467261    0.1218818237
      3  C         1.4165570445    0.9248797982   -0.3169015097
      4  C         0.3915905339    1.6403307561    0.2470749884
      5  C        -0.9876560331    1.4891013260   -0.3327706856
      6  C        -2.1859337751    1.0775328687    0.5867445073
      7  H         3.0763964507    1.4564286587    0.9960341306
      8  H         1.1754575494    0.3131516264   -1.1962216708
      9  C        -2.9120048074   -0.2484166860    0.3739041293
     10  C        -2.5415841734   -1.3125342217    1.1443193868
     11  C        -3.2196536934   -2.6764438219    1.0653346091
     12  C        -4.5717730693   -2.6507943610    0.3326310916
     13  H        -3.3362212954   -3.0725726231    2.0918595395
     14  H        -2.5307157936   -3.3851001306    0.5615095864
     15  C        -4.4264873803   -1.8255252122   -0.9560606145
     16  H        -5.3398611243   -2.2027460381    0.9860011726
     17  H        -4.9075496212   -3.6772822199    0.1076130307
     18  C        -4.0413020365   -0.3353249660   -0.6931080381
     19  H        -5.3584215324   -1.8469497417   -1.5467891478
     20  H        -3.6465695833   -2.2928518086   -1.5857301507
     21  C        -1.4076919365   -1.2886704834    2.1650680630
     22  H        -0.6956621951   -0.4651365184    2.0368575087
     23  H        -0.8283784500   -2.2255786864    2.0953672300
     24  H        -1.8048393426   -1.2479321014    3.1967407324
     25  C        -5.3014130549    0.4436381750   -0.1946306562
     26  H        -5.6968752589    0.0260034309    0.7449278821
     27  H        -6.1010616414    0.3897536202   -0.9534251907
     28  H        -5.0702694276    1.5042082718   -0.0241189608
     29  C        -3.6024604992    0.2675834562   -2.0643133951
     30  H        -2.7125278351   -0.2493176137   -2.4614519580
     31  H        -3.3885260328    1.3410300947   -1.9949779196
     32  H        -4.4140389042    0.1277901666   -2.7985871090
     33  C         5.1415887716   -0.0343798704   -0.1200912777
     34  C         5.9405380471   -0.8916053406   -0.8485119016
     35  C         7.3480830602   -1.1798126016   -0.6611751614
     36  C         8.0489257540   -2.0556263475   -1.4262643751
     37  H         7.8777421379   -0.6612950593    0.1446287420
     38  H         5.4617972811   -1.4333060958   -1.6742907676
     39  H         7.5776191237   -2.6065527172   -2.2454455955
     40  H         9.1096697120   -2.2460813968   -1.2527503217
     41  H         3.4282220545   -0.5024325317   -1.3650523325
     42  C         0.5410732775    2.5659657426    1.4401702305
     43  H         1.5758525491    2.9103368222    1.5724605522
     44  H         0.2327967136    2.0771958059    2.3831014438
     45  H        -0.1045435333    3.4473963041    1.3093695248
     46  C         5.6485521823    0.7804445590    1.0593613366
     47  H         6.7169538905    0.6252637953    1.2532469968
     48  H         5.1006082331    0.5200310606    1.9810336655
     49  H         5.4918798150    1.8588872554    0.8879486035
     50  O        -2.9146346497    2.2916649336    0.1542897824
     51  H        -1.9261275508    1.2010234889    1.6499045369
     52  O        -1.6586406541    2.7939741600   -0.5714752574
     53  H        -0.9590316048    0.9027049291   -1.2657572949

Z-matrix Print:
$molecule
0 1
O 
C  1 1.480587
H  2 1.101389 1 107.824262
C  2 1.526638 1 115.940402 3 123.946151 0
C  4 1.364953 2 117.992507 1 -157.276192 0
C  5 1.525210 4 123.180227 2 177.779237 0
H  6 1.106463 5 108.599034 4 -139.104550 0
H  6 1.109355 5 108.582521 4 107.291623 0
C  5 1.525847 4 124.545539 2 -2.816857 0
H  9 1.096190 5 114.595028 4 -18.208567 0
H  9 1.103748 5 109.543061 4 -138.222610 0
H  9 1.106225 5 110.957400 4 104.872490 0
O  1 1.535112 2 90.213929 3 103.704194 0
C  13 1.486571 1 90.352997 2 8.544094 0
H  14 1.102336 13 110.044752 1 105.131294 0
C  14 1.503799 13 112.806590 1 -130.497627 0
C  16 1.371312 14 118.325590 13 -132.228727 0
H  17 1.097973 16 117.124000 14 2.750881 0
C  17 1.445530 16 127.477982 14 -176.408465 0
H  19 1.093229 17 117.854276 16 -0.677980 0
C  19 1.372813 17 123.070893 16 178.554158 0
H  21 1.097504 19 117.561537 17 0.040850 0
C  21 1.453992 19 126.698195 17 -179.633535 0
C  23 1.379765 21 118.274201 19 178.410551 0
H  24 1.097517 23 116.826013 21 -0.221598 0
C  24 1.448910 23 128.158463 21 -179.937406 0
H  26 1.094860 24 118.093585 23 -0.708178 0
C  26 1.357789 24 123.840155 23 179.276311 0
H  28 1.091585 26 121.638237 24 -179.961506 0
H  28 1.093941 26 121.629244 24 -0.094075 0
C  16 1.517439 14 117.056265 13 48.772293 0
H  31 1.098572 16 112.252421 14 -159.025291 0
H  31 1.100386 16 109.716237 14 -38.416862 0
H  31 1.105916 16 111.920940 14 80.161996 0
C  23 1.520546 21 118.401182 19 -1.358401 0
H  35 1.096884 23 112.708796 21 -179.207713 0
H  35 1.103162 23 110.854144 21 -58.397880 0
H  35 1.103421 23 110.847164 21 60.099209 0
C  6 1.538096 5 113.614210 4 -15.306147 0
H  39 1.103203 6 110.439077 5 167.445241 0
H  39 1.103449 6 109.670992 5 -75.285755 0
C  39 1.537174 6 108.979638 5 45.344244 0
H  42 1.103594 39 111.008973 6 175.810603 0
H  42 1.105961 39 108.487756 6 59.224409 0
C  4 1.556078 2 119.292478 1 22.284430 0
C  45 1.560860 4 112.133896 2 48.899769 0
H  46 1.096751 45 112.170502 4 -63.574628 0
H  46 1.103126 45 111.228549 4 58.677533 0
H  46 1.103340 45 109.201489 4 176.697368 0
C  45 1.563056 4 109.789212 2 -71.563075 0
H  50 1.098777 45 111.157164 4 60.269280 0
H  50 1.101626 45 111.867882 4 -60.558084 0
H  50 1.103680 45 109.908353 4 179.570189 0
$end

 
 --------------------------------------------------------------
 
                    Orbital Energies (a.u.)
 --------------------------------------------------------------
 
 Alpha MOs
 -- Occupied --
-18.835 -18.834  -9.979  -9.979  -9.943  -9.938  -9.935  -9.934
 -9.933  -9.933  -9.932  -9.932  -9.931  -9.928  -9.926  -9.924
 -9.924  -9.923  -9.923  -9.917  -9.912  -9.901  -9.901  -0.988
 -0.794  -0.752  -0.746  -0.728  -0.698  -0.695  -0.680  -0.663
 -0.637  -0.617  -0.610  -0.599  -0.594  -0.591  -0.555  -0.528
 -0.506  -0.492  -0.484  -0.474  -0.467  -0.446  -0.430  -0.426
 -0.420  -0.410  -0.399  -0.390  -0.382  -0.378  -0.370  -0.368
 -0.365  -0.362  -0.358  -0.351  -0.347  -0.345  -0.342  -0.337
 -0.325  -0.323  -0.321  -0.315  -0.311  -0.304  -0.301  -0.296
 -0.294  -0.290  -0.289  -0.284  -0.282  -0.271  -0.267  -0.263
 -0.257  -0.240  -0.218  -0.191  -0.171  -0.163
 -- Virtual --
 -0.085  -0.055  -0.017  -0.008   0.038   0.057   0.059   0.064
  0.068   0.072   0.078   0.086   0.090   0.097   0.101   0.102
  0.108   0.113   0.126   0.130   0.132   0.138   0.142   0.146
  0.150   0.151   0.152   0.157   0.160   0.163   0.167   0.175
  0.177   0.180   0.191   0.192   0.194   0.197   0.202   0.205
  0.209   0.216   0.221   0.223   0.230   0.237   0.247   0.249
  0.264   0.280   0.290   0.312   0.338   0.346   0.354   0.366
  0.388   0.397   0.409   0.440   0.445   0.462   0.465   0.468
  0.474   0.479   0.482   0.494   0.496   0.504   0.509   0.514
  0.524   0.534   0.539   0.540   0.550   0.555   0.557   0.562
  0.566   0.577   0.582   0.587   0.591   0.594   0.601   0.614
  0.616   0.622   0.627   0.631   0.639   0.646   0.658   0.664
  0.667   0.675   0.679   0.690   0.696   0.699   0.714   0.723
  0.739   0.748   0.753   0.756   0.762   0.762   0.764   0.775
  0.776   0.783   0.797   0.805   0.806   0.813   0.814   0.817
  0.823   0.825   0.831   0.834   0.840   0.846   0.853   0.860
  0.861   0.866   0.866   0.877   0.883   0.890   0.892   0.894
  0.904   0.910   0.912   0.916   0.923   0.929   0.951   0.960
  0.964   0.976   0.985   0.989   1.009   1.022   1.030   1.041
  1.049   1.056   1.080   1.085   1.102   1.121   1.139   1.165
  1.169   1.181   1.192   1.212   1.216   1.222   1.229   1.242
  1.252   1.258   1.260   1.280   1.286   1.298   1.318   1.332
  1.339   1.354   1.368   1.370   1.384   1.410   1.416   1.421
  1.427   1.440   1.445   1.464   1.479   1.484   1.511   1.513
  1.541   1.554   1.568   1.595   1.611   1.629   1.636   1.670
  1.681   1.688   1.691   1.693   1.709   1.722   1.723   1.734
  1.738   1.747   1.750   1.759   1.767   1.772   1.779   1.785
  1.785   1.793   1.800   1.807   1.815   1.826   1.833   1.843
  1.848   1.855   1.864   1.871   1.877   1.888   1.891   1.904
  1.925   1.931   1.942   1.947   1.968   1.971   1.983   1.988
  1.989   1.993   1.999   2.006   2.011   2.013   2.016   2.025
  2.032   2.037   2.040   2.044   2.053   2.053   2.060   2.063
  2.070   2.081   2.089   2.090   2.100   2.108   2.120   2.125
  2.134   2.137   2.148   2.162   2.165   2.186   2.191   2.195
  2.222   2.235   2.240   2.251   2.262   2.270   2.285   2.290
  2.291   2.305   2.313   2.328   2.330   2.346   2.348   2.355
  2.365   2.377   2.389   2.404   2.413   2.420   2.422   2.433
  2.443   2.452   2.458   2.465   2.484   2.504   2.511   2.523
  2.531   2.534   2.538   2.554   2.566   2.573   2.575   2.579
  2.595   2.602   2.615   2.627   2.632   2.640   2.645   2.647
  2.657   2.660   2.670   2.683   2.689   2.709   2.713   2.718
  2.728   2.748   2.752   2.762   2.767   2.775   2.782   2.786
  2.793   2.806   2.808   2.813   2.820   2.823   2.829   2.841
  2.865   2.875   2.892   2.907   2.952   2.965   2.978   2.988
  3.010   3.031   3.063   3.113   3.123   3.131   3.136   3.166
  3.172   3.173   3.183   3.231   3.252   3.293   3.306   3.323
  3.329   3.340   3.343   3.352   3.357   3.359   3.370   3.375
  3.388   3.391   3.400   3.418   3.421   3.435   3.475   3.479
  3.513   3.592   3.618   4.014   4.040   4.055   4.078   4.131
  4.180   4.187   4.270   4.284   4.362   4.382   4.399   4.429
  4.435   4.487   4.528   4.546   4.574   4.629   4.654   4.709
  4.801
 --------------------------------------------------------------
 
          Ground-State Mulliken Net Atomic Charges

     Atom                 Charge (a.u.)
  ----------------------------------------
      1 C                    -0.090623
      2 C                    -0.056984
      3 C                    -0.094071
      4 C                     0.146284
      5 C                     0.114903
      6 C                     0.125074
      7 H                     0.055842
      8 H                     0.052489
      9 C                     0.098778
     10 C                     0.074223
     11 C                    -0.198925
     12 C                    -0.163098
     13 H                     0.081835
     14 H                     0.090506
     15 C                    -0.140956
     16 H                     0.085799
     17 H                     0.069504
     18 C                     0.031579
     19 H                     0.067374
     20 H                     0.069205
     21 C                    -0.354364
     22 H                     0.103968
     23 H                     0.101228
     24 H                     0.106348
     25 C                    -0.289096
     26 H                     0.081913
     27 H                     0.080291
     28 H                     0.116721
     29 C                    -0.296717
     30 H                     0.076250
     31 H                     0.124498
     32 H                     0.078380
     33 C                     0.156880
     34 C                    -0.108761
     35 C                    -0.003101
     36 C                    -0.221943
     37 H                     0.059163
     38 H                     0.053149
     39 H                     0.082984
     40 H                     0.085238
     41 H                     0.053352
     42 C                    -0.364192
     43 H                     0.101142
     44 H                     0.106301
     45 H                     0.131508
     46 C                    -0.358872
     47 H                     0.097515
     48 H                     0.112220
     49 H                     0.113313
     50 O                    -0.309225
     51 H                     0.081918
     52 O                    -0.292664
     53 H                     0.075915
  ----------------------------------------
  Sum of atomic charges =    -0.000000

 -----------------------------------------------------------------
                    Cartesian Multipole Moments
 -----------------------------------------------------------------
    Charge (ESU x 10^10)
                -0.0000
    Dipole Moment (Debye)
         X       2.3114      Y      -2.6440      Z       1.3590
       Tot       3.7657
    Quadrupole Moments (Debye-Ang)
        XX    -135.4569     XY       8.5556     YY    -147.6801
        XZ       1.0904     YZ       4.8123     ZZ    -137.7525
    Octopole Moments (Debye-Ang^2)
       XXX      77.1049    XXY     -29.6432    XYY      14.5097
       YYY     -19.4024    XXZ      12.5732    XYZ      18.0582
       YYZ       3.7304    XZZ      -4.3345    YZZ      -2.9270
       ZZZ      -1.3112
    Hexadecapole Moments (Debye-Ang^3)
      XXXX  -13807.3928   XXXY     -74.5288   XXYY   -2858.3469
      XYYY      80.8502   YYYY   -2413.5039   XXXZ     337.7297
      XXYZ      86.2740   XYYZ      33.4569   YYYZ     -25.8844
      XXZZ   -2615.3716   XYZZ     -22.5835   YYZZ    -575.6727
      XZZZ     194.1447   YZZZ     -46.8624   ZZZZ   -1154.4988
 -----------------------------------------------------------------
Archival summary:
1\1\cub-0-3.local\OPT\ProcedureUnspecified\6-31G**\22130\c295_lal\WedOct3116:30:372018WedOct3116:30:372018\0\\#,OPT,ProcedureUnspecified,6-31G**,\\0,1\O\C,1,1.48059\H,2,1.10139,1,107.824\C,2,1.52664,1,115.94,3,123.946,0\C,4,1.36495,2,117.993,1,-157.276,0\C,5,1.52521,4,123.18,2,177.779,0\H,6,1.10646,5,108.599,4,-139.105,0\H,6,1.10936,5,108.583,4,107.292,0\C,5,1.52585,4,124.546,2,-2.81686,0\H,9,1.09619,5,114.595,4,-18.2086,0\H,9,1.10375,5,109.543,4,-138.223,0\H,9,1.10623,5,110.957,4,104.872,0\O,1,1.53511,2,90.2139,3,103.704,0\C,13,1.48657,1,90.353,2,8.54409,0\H,14,1.10234,13,110.045,1,105.131,0\C,14,1.5038,13,112.807,1,-130.498,0\C,16,1.37131,14,118.326,13,-132.229,0\H,17,1.09797,16,117.124,14,2.75088,0\C,17,1.44553,16,127.478,14,-176.408,0\H,19,1.09323,17,117.854,16,-0.67798,0\C,19,1.37281,17,123.071,16,178.554,0\H,21,1.0975,19,117.562,17,0.0408505,0\C,21,1.45399,19,126.698,17,-179.634,0\C,23,1.37977,21,118.274,19,178.411,0\H,24,1.09752,23,116.826,21,-0.221598,0\C,24,1.44891,23,128.158,21,-179.937,0\H,26,1.09486,24,118.094,23,-0.708178,0\C,26,1.35779,24,123.84,23,179.276,0\H,28,1.09159,26,121.638,24,-179.962,0\H,28,1.09394,26,121.629,24,-0.0940754,0\C,16,1.51744,14,117.056,13,48.7723,0\H,31,1.09857,16,112.252,14,-159.025,0\H,31,1.10039,16,109.716,14,-38.4169,0\H,31,1.10592,16,111.921,14,80.162,0\C,23,1.52055,21,118.401,19,-1.3584,0\H,35,1.09688,23,112.709,21,-179.208,0\H,35,1.10316,23,110.854,21,-58.3979,0\H,35,1.10342,23,110.847,21,60.0992,0\C,6,1.5381,5,113.614,4,-15.3061,0\H,39,1.1032,6,110.439,5,167.445,0\H,39,1.10345,6,109.671,5,-75.2858,0\C,39,1.53717,6,108.98,5,45.3442,0\H,42,1.10359,39,111.009,6,175.811,0\H,42,1.10596,39,108.488,6,59.2244,0\C,4,1.55608,2,119.292,1,22.2844,0\C,45,1.56086,4,112.134,2,48.8998,0\H,46,1.09675,45,112.171,4,-63.5746,0\H,46,1.10313,45,111.229,4,58.6775,0\H,46,1.10334,45,109.201,4,176.697,0\C,45,1.56306,4,109.789,2,-71.5631,0\H,50,1.09878,45,111.157,4,60.2693,0\H,50,1.10163,45,111.868,4,-60.5581,0\H,50,1.10368,45,109.908,4,179.57,0\\\@

 Total job time:  946.21s(wall), 7449.57s(cpu) 
 Wed Oct 31 16:30:37 2018

        *************************************************************
        *                                                           *
        *  Thank you very much for using Q-Chem.  Have a nice day.  *
        *                                                           *
        *************************************************************


