
Running Job 1 of 1 sys_3_631Gd_b3lyp.in
qchem sys_3_631Gd_b3lyp.in_11496.0 /scr/c295_lal/137049/qchem11496/ 1
/usr/software/qchem_511/exe/qcprog.exe_s sys_3_631Gd_b3lyp.in_11496.0 /scr/c295_lal/137049/qchem11496/
Check license passed

                  Welcome to Q-Chem
     A Quantum Leap Into The Future Of Chemistry


 Q-Chem 5.1, Q-Chem, Inc., Pleasanton, CA (2018)

 Yihan Shao,  Zhengting Gan,  E. Epifanovsky,  A. T. B. Gilbert,  M. Wormit,  
 J. Kussmann,  A. W. Lange,  A. Behn,  Jia Deng,  Xintian Feng,  D. Ghosh,  
 M. Goldey,  P. R. Horn,  L. D. Jacobson,  I. Kaliman,  T. Kus,  A. Landau,  
 Jie Liu,  E. I. Proynov,  R. M. Richard,  R. P. Steele,  E. J. Sundstrom,  
 H. L. Woodcock III,  P. M. Zimmerman,  D. Zuev,  B. Albrecht,  E. Alguire,  
 S. A. Baeppler,  D. Barton,  Z. Benda,  Y. A. Bernard,  E. J. Berquist,  
 K. B. Bravaya,  H. Burton,  D. Casanova,  Chun-Min Chang,  Yunqing Chen,  
 A. Chien,  K. D. Closser,  M. P. Coons,  S. Coriani,  S. Dasgupta,  
 A. L. Dempwolff,  M. Diedenhofen,  Hainam Do,  R. G. Edgar,  Po-Tung Fang,  
 S. Faraji,  S. Fatehi,  Qingguo Feng,  K. D. Fenk,  J. Fosso-Tande,  
 Qinghui Ge,  A. Ghysels,  G. Gidofalvi,  J. Gomes,  J. Gonthier,  A. Gunina,  
 D. Hait,  M. W. D. Hanson-Heine,  P. H. P. Harbach,  A. W. Hauser,  
 J. E. Herr,  E. G. Hohenstein,  Z. C. Holden,  Kerwin Hui,  B. C. Huynh,  
 T.-C. Jagau,  Hyunjun Ji,  B. Kaduk,  K. Khistyaev,  Jaehoon Kim,  
 P. Klunzinger,  K. Koh,  D. Kosenkov,  L. Koulias,  T. Kowalczyk,  
 C. M. Krauter,  A. Kunitsa,  Ka Un Lao,  A. Laurent,  K. V. Lawler,  
 Joonho Lee,  D. Lefrancois,  S. Lehtola,  D. S. Levine,  Yi-Pei Li,  
 You-Sheng Lin,  Fenglai Liu,  E. Livshits,  A. Luenser,  P. Manohar,  
 E. Mansoor,  S. F. Manzer,  Shan-Ping Mao,  Yuezhi Mao,  N. Mardirossian,  
 A. V. Marenich,  T. Markovich,  L. A. Martinez-Martinez,  S. A. Maurer,  
 N. J. Mayhall,  S. C. McKenzie,  J.-M. Mewes,  A. F. Morrison,  
 J. W. Mullinax,  K. Nanda,  T. S. Nguyen-Beck,  R. Olivares-Amaya,  
 J. A. Parkhill,  T. M. Perrine,  F. Plasser,  P. Pokhilko,  S. Prager,  
 A. Prociuk,  E. Ramos,  D. R. Rehn,  F. Rob,  M. Schneider,  N. Sergueev,  
 S. M. Sharada,  S. Sharma,  D. W. Small,  T. Stauch,  T. Stein,  
 Yu-Chuan Su,  A. J. W. Thom,  A. Tkatchenko,  T. Tsuchimochi,  N. M. Tubman,  
 L. Vogt,  M. L. Vidal,  O. Vydrov,  M. A. Watson,  J. Wenzel,  
 M. de Wergifosse,  T. A. Wesolowski,  A. White,  J. Witte,  A. Yamada,  
 Jun Yang,  K. Yao,  S. Yeganeh,  S. R. Yost,  Zhi-Qiang You,  A. Zech,  
 Igor Ying Zhang,  Xing Zhang,  Yan Zhao,  Ying Zhu,  B. R. Brooks,  
 G. K. L. Chan,  C. J. Cramer,  M. S. Gordon,  W. J. Hehre,  A. Klamt,  
 M. W. Schmidt,  C. D. Sherrill,  D. G. Truhlar,  A. Aspuru-Guzik,  R. Baer,  
 A. T. Bell,  N. A. Besley,  Jeng-Da Chai,  A. E. DePrince, III,  
 R. A. DiStasio Jr.,  A. Dreuw,  B. D. Dunietz,  T. R. Furlani,  
 Chao-Ping Hsu,  Yousung Jung,  Jing Kong,  D. S. Lambrecht,  WanZhen Liang,  
 C. Ochsenfeld,  V. A. Rassolov,  L. V. Slipchenko,  J. E. Subotnik,  
 T. Van Voorhis,  J. M. Herbert,  A. I. Krylov,  P. M. W. Gill,  M. Head-Gordon

 Contributors to earlier versions of Q-Chem not listed above: 
 R. D. Adamson,  B. Austin,  J. Baker,  G. J. O. Beran,  K. Brandhorst,  
 S. T. Brown,  E. F. C. Byrd,  A. K. Chakraborty,  C.-L. Cheng,  
 Siu Hung Chien,  D. M. Chipman,  D. L. Crittenden,  H. Dachsel,  
 R. J. Doerksen,  A. D. Dutoi,  L. Fusti-Molnar,  W. A. Goddard III,  
 A. Golubeva-Zadorozhnaya,  S. R. Gwaltney,  G. Hawkins,  A. Heyden,  
 S. Hirata,  G. Kedziora,  F. J. Keil,  C. Kelley,  Jihan Kim,  R. A. King,  
 R. Z. Khaliullin,  P. P. Korambath,  W. Kurlancheek,  A. M. Lee,  M. S. Lee,  
 S. V. Levchenko,  Ching Yeh Lin,  D. Liotard,  R. C. Lochan,  I. Lotan,  
 P. E. Maslen,  N. Nair,  D. P. O'Neill,  D. Neuhauser,  E. Neuscamman,  
 C. M. Oana,  R. Olson,  B. Peters,  R. Peverati,  P. A. Pieniazek,  
 Y. M. Rhee,  J. Ritchie,  M. A. Rohrdanz,  E. Rosta,  N. J. Russ,  
 H. F. Schaefer III,  N. E. Schultz,  N. Shenvi,  A. C. Simmonett,  A. Sodt,  
 D. Stuck,  K. S. Thanthiriwatte,  V. Vanovschi,  Tao Wang,  A. Warshel,  
 C. F. Williams,  Q. Wu,  X. Xu,  W. Zhang

 Please cite Q-Chem as follows:
 Y. Shao et al., Mol. Phys. 113, 184-215 (2015)
 DOI: 10.1080/00268976.2014.952696

 Q-Chem 5.1.1 for Intel X86 EM64T Linux

 Parts of Q-Chem use Armadillo 8.300.2 (Tropical Shenanigans).
 http://arma.sourceforge.net/

 Q-Chem begins on Wed Oct 31 14:24:21 2018  

Host: cub-0-4.local
0

     Scratch files written to /scr/c295_lal/137049/qchem11496//
 Aug318 |scratch|qcdevops|jenkins|workspace|build_RNUM -1
Processing $rem in /usr/software/qchem_511/config/preferences.
 MEM_TOTAL  2000 
Input Ideriv = 2
Curr. Ideriv = -1
Max.  Ideriv = 2

Checking the input file for inconsistencies... 	...done.

--------------------------------------------------------------
User input:
--------------------------------------------------------------
$rem
JOBTYPE Opt
EXCHANGE B3LYP
BASIS 6-31G(d)
MAX_SCF_CYCLES = 500
GUI=2
$end

$comment
sys_3
$end

$molecule
3 8
O        1.67468        0.46332        0.00000
O        0.94033       -0.42288        0.00000
Fe       -0.91909       -0.10709        0.00000
$end

--------------------------------------------------------------
 ----------------------------------------------------------------
             Standard Nuclear Orientation (Angstroms)
    I     Atom           X                Y                Z
 ----------------------------------------------------------------
    1      O       1.7926012921    -0.3254123202    -0.0000000000
    2      O       0.9646359401     0.4740210656     0.0000000000
    3      Fe     -0.8483806869    -0.0457257678    -0.0000000000
 ----------------------------------------------------------------
 Molecular Point Group                 Cs    NOp =  2
 Largest Abelian Subgroup              Cs    NOp =  2
 Nuclear Repulsion Energy =   129.2313774266 hartrees
 There are       23 alpha and       16 beta electrons
 Requested basis set is 6-31G(d)
 There are 16 shells and 66 basis functions

 Total QAlloc Memory Limit   2000 MB
 Mega-Array Size       188 MB
 MEM_STATIC part       192 MB
 A cutoff of  1.0D-11 yielded    131 shell pairs
 There are      2324 function pairs (      2552 Cartesian)
 
 -------------------------------------------------------
 OpenMP Integral Computing Module                       
 Release: version 1.0, May 2013, Q-Chem Inc. Pittsburgh 
 -------------------------------------------------------
 Integral Job Info:
 Integral job number is                      11
 Integral operator is                         1
 short-range coefficients                     0
 long-range coefficients              100000000
 Omega coefficients                           0
 if combine SR and LR in K                    0
 Integral screening is                        0
 Integral computing path is                   2
 max size of driver memory is            800000
 size of driver memory is                776718
 size of scratch memory is             15447240
 max col of scratch BK array              10000
 max len of scratch array in speh3          662
 max len of scratch index in speh4           32
 max int batch size is                      520
 min int batch size is                       52
 fixed nKL is                                52
 max L of basis functions is                  3
 order of int derivative is                   0
 number of shells is                         16
 number of basis is                          69
 number of cartesian basis is                69
 number of contracted shell pairs           131
 number of primitive shell pairs            962
 maxK2 (contraction) of shell pair           36
 max number of K2 of shell pair               1
 max number of CS2 of shell pair             13
 max number of PS2 of shell pair            108
 mem total for path MDJ                  529878
 -------------------------------------------------------
 Smallest overlap matrix eigenvalue = 1.76E-03

 Scale SEOQF with 1.000000e-01/1.000000e-01/1.000000e-01

 Standard Electronic Orientation quadrupole field applied
 Nucleus-field energy     =     0.0000000020 hartrees
 Guess from superposition of atomic densities
 Warning:  Energy on first SCF cycle will be non-variational
 SAD guess density has 41.991007 electrons

 -----------------------------------------------------------------------
  General SCF calculation program by
  Eric Jon Sundstrom, Paul Horn, Yuezhi Mao, Dmitri Zuev, Alec White,
  David Stuck, Shaama M.S., Shane Yost, Joonho Lee, David Small,
  Daniel Levine, Susi Lehtola, Hugh Burton, Evgeny Epifanovsky
 -----------------------------------------------------------------------
 Exchange:     0.2000 Hartree-Fock + 0.0800 Slater + 0.7200 B88
 Correlation:  0.1900 VWN1RPA + 0.8100 LYP
 Using SG-1 standard quadrature grid
 using 12 threads for integral computing
 -------------------------------------------------------
 OpenMP Integral computing Module                
 Release: version 1.0, May 2013, Q-Chem Inc. Pittsburgh 
 -------------------------------------------------------
 -------------------------------------------------------
 OpenMP BLAS3 based DFT computing Module                
 Release: version 1.0, May 2013, Q-Chem Inc. Pittsburgh 
 -------------------------------------------------------
 A unrestricted SCF calculation will be
 performed using DIIS
 SCF converges when DIIS error is below 1.0e-08
 ---------------------------------------
  Cycle       Energy         DIIS error
 ---------------------------------------
    1   -1413.8733402253      1.62e-01  
    2   -1411.5329707197      1.65e-02  
    3   -1404.0068876286      6.35e-02  
    4   -1411.8049674192      9.06e-03  
    5   -1411.8647223734      8.55e-03  
    6   -1411.9925395271      1.20e-03  
    7   -1411.9909773638      1.64e-03  
    8   -1411.9951160102      1.55e-04  
    9   -1411.9951790514      6.92e-05  
   10   -1411.9951925097      1.22e-05  
   11   -1411.9951943577      9.81e-06  
   12   -1411.9951947958      1.47e-06  
   13   -1411.9951948726      1.72e-06  
   14   -1411.9951949044      4.40e-07  
   15   -1411.9951949128      5.23e-07  
   16   -1411.9951949142      3.23e-08  
   17   -1411.9951949142      9.92e-09  Convergence criterion met
 ---------------------------------------
 SCF time:   CPU 21.37s  wall 2.00s 
<S^2> =         15.758688015
 SCF   energy in the final basis set =    -1411.9951949142
 Total energy in the final basis set =    -1411.9951949142
 
 --------------------------------------------------------------
             Orbital Energies (a.u.) and Symmetries
 --------------------------------------------------------------
 
 Alpha MOs, Unrestricted
 -- Occupied --                  
-257.32  -31.33  -27.19  -27.19  -27.18  -20.18  -20.15   -4.77
  1 A'    2 A'    3 A'    1 A"    4 A'    5 A'    6 A'    7 A'                 
 -3.543  -3.541  -3.527  -2.209  -1.681  -1.520  -1.520  -1.515
  8 A'    2 A"    9 A'   10 A'   11 A'   12 A'    3 A"   13 A'                 
 -1.513  -1.509  -1.414  -1.405  -1.374  -1.128  -1.114
  4 A"   14 A'   15 A'    5 A"   16 A'   17 A'    6 A"                         
 -- Virtual --                   
 -0.949  -0.729  -0.716  -0.626  -0.514  -0.447  -0.344  -0.343
 18 A'   19 A'    7 A"   20 A'   21 A'   22 A'   23 A'    8 A"                 
 -0.331  -0.026   0.018   0.028   0.074   0.141   0.149   0.187
 24 A'   25 A'    9 A"   26 A'   27 A'   28 A'   10 A"   29 A'                 
  0.315   0.356   0.359   0.419   0.441   0.543   0.626   0.700
 30 A'   31 A'   11 A"   12 A"   32 A'   33 A'   34 A'   13 A"                 
  0.723   0.734   0.991   1.028   1.051   1.125   1.126   1.136
 14 A"   35 A'   36 A'   15 A"   37 A'   38 A'   16 A"   17 A"                 
  1.150   1.223   1.397   1.664   1.750   1.811   2.025   2.061
 39 A'   40 A'   18 A"   41 A'   42 A'   19 A"   43 A'   44 A'                 
  2.570   2.889  19.149
 45 A'   46 A'   47 A'                                                         
 
 Beta MOs, Unrestricted
 -- Occupied --                  
-257.31  -31.23  -27.10  -27.10  -27.10  -20.13  -20.13   -4.53
  1 A'    2 A'    3 A'    1 A"    4 A'    5 A'    6 A'    7 A'                 
 -3.289  -3.288  -3.284  -2.138  -1.584  -1.356  -1.297  -1.297
  8 A'    2 A"    9 A'   10 A'   11 A'   12 A'   13 A'    3 A"                 
 -- Virtual --                   
 -1.167  -1.166  -1.164  -1.164  -1.146  -0.931  -0.888  -0.874
 14 A'    4 A"    5 A"   15 A'   16 A'   17 A'    6 A"   18 A'                 
 -0.695  -0.680  -0.594  -0.461  -0.428  -0.326  -0.324  -0.304
 19 A'    7 A"   20 A'   21 A'   22 A'   23 A'    8 A"   24 A'                 
  0.012   0.072   0.078   0.101   0.196   0.224   0.231   0.376
 25 A'   26 A'    9 A"   27 A'   28 A'   10 A"   29 A'   30 A'                 
  0.468   0.480   0.507   0.524   0.606   0.677   0.754   0.794
 31 A'   11 A"   12 A"   32 A'   33 A'   34 A'   13 A"   14 A"                 
  0.803   1.073   1.116   1.137   1.228   1.228   1.230   1.242
 35 A'   36 A'   15 A"   37 A'   38 A'   16 A"   17 A"   39 A'                 
  1.302   1.477   1.723   1.800   1.862   2.080   2.097   2.627
 40 A'   18 A"   41 A'   42 A'   19 A"   43 A'   44 A'   45 A'                 
  2.934  19.280
 46 A'   47 A'                                                                 
 --------------------------------------------------------------
 
          Ground-State Mulliken Net Atomic Charges

     Atom                 Charge (a.u.)    Spin (a.u.)
  --------------------------------------------------------
      1 O                     0.559889       1.474782
      2 O                     0.026396       0.782586
      3 Fe                    2.413715       4.742632
  --------------------------------------------------------
  Sum of atomic charges =     3.000000
  Sum of spin   charges =     7.000000

 -----------------------------------------------------------------
                    Cartesian Multipole Moments
 -----------------------------------------------------------------
    Charge (ESU x 10^10)
                14.4096
    Dipole Moment (Debye)
         X      -4.8590      Y      -1.0955      Z      -0.0000
       Tot       4.9809
    Quadrupole Moments (Debye-Ang)
        XX       4.1676     XY      -0.1751     YY     -15.0185
        XZ      -0.0000     YZ       0.0000     ZZ     -15.5376
    Octopole Moments (Debye-Ang^2)
       XXX      -6.9774    XXY      -2.2707    XYY      -5.3168
       YYY      -1.7014    XXZ      -0.0000    XYZ       0.0000
       YYZ       0.0000    XZZ      -5.9242    YZZ      -0.6414
       ZZZ       0.0000
    Hexadecapole Moments (Debye-Ang^3)
      XXXX     -96.9125   XXXY      -2.3414   XXYY     -24.1695
      XYYY       0.1689   YYYY     -16.6857   XXXZ      -0.0000
      XXYZ       0.0000   XYYZ       0.0000   YYYZ      -0.0000
      XXZZ     -23.9591   XYZZ       0.0835   YYZZ      -4.2398
      XZZZ      -0.0000   YZZZ      -0.0000   ZZZZ      -8.2740
 -----------------------------------------------------------------
 Calculating analytic gradient of the SCF energy
 Gradient of SCF Energy
            1           2           3
    1  -0.1924361   0.1567194   0.0357166
    2   0.1500891  -0.1441786  -0.0059104
    3  -0.0000000   0.0000000  -0.0000000
 Max gradient component =       1.924E-01
 RMS gradient           =       1.086E-01
 Gradient time:  CPU 7.87 s  wall 0.73 s
 Geometry Optimization Parameters
   NAtoms,    NIC,     NZ,  NCons,   NDum,   NFix, NCnnct, MaxDiis
        3       9       0       0       0       0       0       0


** GEOMETRY OPTIMIZATION IN DELOCALIZED INTERNAL COORDINATES **
   Searching for a Minimum

   Optimization Cycle:   1

                       Coordinates (Angstroms)
     ATOM                X               Y               Z
      1  O         1.7926012921   -0.3254123202    0.0000000000
      2  O         0.9646359401    0.4740210656    0.0000000000
      3  Fe       -0.8483806869   -0.0457257678    0.0000000000
   Point Group: cs    Number of degrees of freedom:     3


   Energy is  -1411.995194914


 Attempting to Generate Delocalized Internal Coordinates

  3 Hessian modes will be used to form the next step
  Hessian Eigenvalues:
     0.203616    0.250000    1.339237

 Minimum Search - Taking Simple RFO Step
 Searching for Lamda that Minimizes Along All modes
 Value Taken    Lamda =  -0.05644832
 Step Taken.  Stepsize is  0.281220

                             Maximum     Tolerance    Cnvgd?
         Gradient           0.162946      0.000300      NO
         Displacement       0.250940      0.001200      NO
         Energy change     *********      0.000001      NO


 New Cartesian Coordinates Obtained by Inverse Iteration

 Displacement from previous Coordinates is:  0.369704
 ----------------------------------------------------------------
             Standard Nuclear Orientation (Angstroms)
    I     Atom           X                Y                Z
 ----------------------------------------------------------------
    1      O       1.9356434789    -0.3140337465     0.0000000000
    2      O       0.9380185078     0.4273679231     0.0000000000
    3      Fe     -0.9648054413    -0.0104511990     0.0000000000
 ----------------------------------------------------------------
 Molecular Point Group                 Cs    NOp =  2
 Largest Abelian Subgroup              Cs    NOp =  2
 Nuclear Repulsion Energy =   121.3622631161 hartrees
 There are       23 alpha and       16 beta electrons
 Applying Cartesian multipole field
    Component          Value
    ---------          -----
     (2,0,0)        1.00000E-11
     (0,2,0)        2.00000E-11
     (0,0,2)       -3.00000E-11
 Nucleus-field energy     =     0.0000000023 hartrees
 Requested basis set is 6-31G(d)
 There are 16 shells and 66 basis functions
 A cutoff of  1.0D-11 yielded    130 shell pairs
 There are      2320 function pairs (      2548 Cartesian)
 Smallest overlap matrix eigenvalue = 1.76E-03
 Guess MOs from SCF MO coefficient file

 -----------------------------------------------------------------------
  General SCF calculation program by
  Eric Jon Sundstrom, Paul Horn, Yuezhi Mao, Dmitri Zuev, Alec White,
  David Stuck, Shaama M.S., Shane Yost, Joonho Lee, David Small,
  Daniel Levine, Susi Lehtola, Hugh Burton, Evgeny Epifanovsky
 -----------------------------------------------------------------------
 Exchange:     0.2000 Hartree-Fock + 0.0800 Slater + 0.7200 B88
 Correlation:  0.1900 VWN1RPA + 0.8100 LYP
 Using SG-1 standard quadrature grid
 using 12 threads for integral computing
 -------------------------------------------------------
 OpenMP Integral computing Module                
 Release: version 1.0, May 2013, Q-Chem Inc. Pittsburgh 
 -------------------------------------------------------
 -------------------------------------------------------
 OpenMP BLAS3 based DFT computing Module                
 Release: version 1.0, May 2013, Q-Chem Inc. Pittsburgh 
 -------------------------------------------------------
 A unrestricted SCF calculation will be
 performed using DIIS
 SCF converges when DIIS error is below 1.0e-08
 ---------------------------------------
  Cycle       Energy         DIIS error
 ---------------------------------------
    1   -1412.0088342895      2.55e-03  
    2   -1411.9857467986      4.94e-03  
    3   -1412.0177337934      2.53e-03  
    4   -1412.0309797289      8.23e-04  
    5   -1412.0314003529      5.92e-04  
    6   -1412.0319855914      2.31e-04  
    7   -1412.0321055129      3.08e-05  
    8   -1412.0321186783      1.34e-05  
    9   -1412.0321270712      1.82e-05  
   10   -1412.0321429212      2.34e-05  
   11   -1412.0321829707      2.91e-05  
   12   -1412.0322064766      5.68e-05  
   13   -1412.0322020339      3.60e-05  
   14   -1412.0322104940      3.86e-05  
   15   -1412.0322136188      1.06e-05  
   16   -1412.0322138689      5.44e-07  
   17   -1412.0322138696      5.39e-07  
   18   -1412.0322138690      7.62e-07  
   19   -1412.0322138704      2.38e-07  
   20   -1412.0322138705      2.38e-09  Convergence criterion met
 ---------------------------------------
 SCF time:   CPU 24.84s  wall 2.00s 
<S^2> =         15.759889646
 SCF   energy in the final basis set =    -1412.0322138705
 Total energy in the final basis set =    -1412.0322138705
 
 --------------------------------------------------------------
             Orbital Energies (a.u.) and Symmetries
 --------------------------------------------------------------
 
 Alpha MOs, Unrestricted
 -- Occupied --                  
-257.26  -31.27  -27.13  -27.12  -27.12  -20.19  -20.14   -4.71
  1 A'    2 A'    3 A'    1 A"    4 A'    5 A'    6 A'    7 A'                 
 -3.496  -3.483  -3.471  -2.116  -1.685  -1.472  -1.471  -1.466
  8 A'    2 A"    9 A'   10 A'   11 A'   12 A'    3 A"   13 A'                 
 -1.465  -1.454  -1.368  -1.363  -1.346  -1.140  -1.136
 14 A'    4 A"   15 A'    5 A"   16 A'   17 A'    6 A"                         
 -- Virtual --                   
 -0.932  -0.719  -0.695  -0.658  -0.584  -0.442  -0.333  -0.332
 18 A'   19 A'    7 A"   20 A'   21 A'   22 A'   23 A'    8 A"                 
 -0.323   0.005   0.037   0.046   0.105   0.147   0.153   0.183
 24 A'   25 A'    9 A"   26 A'   27 A'   28 A'   10 A"   29 A'                 
  0.322   0.393   0.398   0.417   0.456   0.559   0.661   0.690
 30 A'   31 A'   11 A"   32 A'   12 A"   33 A'   34 A'   13 A"                 
  0.741   0.751   0.991   1.041   1.050   1.160   1.161   1.171
 35 A'   14 A"   36 A'   15 A"   37 A'   38 A'   16 A"   17 A"                 
  1.174   1.235   1.341   1.527   1.577   1.726   1.961   2.098
 39 A'   40 A'   18 A"   41 A'   42 A'   19 A"   43 A'   44 A'                 
  2.530   2.857  19.183
 45 A'   46 A'   47 A'                                                         
 
 Beta MOs, Unrestricted
 -- Occupied --                  
-257.26  -31.17  -27.05  -27.05  -27.04  -20.14  -20.11   -4.48
  1 A'    2 A'    3 A'    1 A"    4 A'    5 A'    6 A'    7 A'                 
 -3.244  -3.241  -3.236  -2.036  -1.583  -1.325  -1.252  -1.237
  8 A'    2 A"    9 A'   10 A'   11 A'   12 A'   13 A'    3 A"                 
 -- Virtual --                   
 -1.138  -1.124  -1.120  -1.119  -1.101  -0.927  -0.898  -0.873
  4 A"   14 A'    5 A"   15 A'   16 A'   17 A'    6 A"   18 A'                 
 -0.682  -0.661  -0.613  -0.547  -0.427  -0.315  -0.314  -0.300
 19 A'    7 A"   20 A'   21 A'   22 A'   23 A'    8 A"   24 A'                 
  0.044   0.090   0.102   0.131   0.197   0.232   0.232   0.387
 25 A'   26 A'    9 A"   27 A'   28 A'   10 A"   29 A'   30 A'                 
  0.478   0.521   0.524   0.538   0.612   0.722   0.743   0.813
 31 A'   11 A"   32 A'   12 A"   33 A'   34 A'   13 A"   35 A'                 
  0.827   1.075   1.131   1.139   1.261   1.261   1.263   1.264
 14 A"   36 A'   15 A"   37 A'   16 A"   38 A'   17 A"   39 A'                 
  1.314   1.419   1.586   1.635   1.782   2.020   2.134   2.590
 40 A'   18 A"   41 A'   42 A'   19 A"   43 A'   44 A'   45 A'                 
  2.905  19.311
 46 A'   47 A'                                                                 
 --------------------------------------------------------------
 
          Ground-State Mulliken Net Atomic Charges

     Atom                 Charge (a.u.)    Spin (a.u.)
  --------------------------------------------------------
      1 O                     0.634879       1.570877
      2 O                    -0.000336       0.830157
      3 Fe                    2.365457       4.598966
  --------------------------------------------------------
  Sum of atomic charges =     3.000000
  Sum of spin   charges =     7.000000

 -----------------------------------------------------------------
                    Cartesian Multipole Moments
 -----------------------------------------------------------------
    Charge (ESU x 10^10)
                14.4096
    Dipole Moment (Debye)
         X      -5.0113      Y      -0.8531      Z      -0.0000
       Tot       5.0834
    Quadrupole Moments (Debye-Ang)
        XX       8.8352     XY      -1.1724     YY     -15.0563
        XZ      -0.0000     YZ       0.0000     ZZ     -15.5135
    Octopole Moments (Debye-Ang^2)
       XXX      -3.1831    XXY      -3.3798    XYY      -4.9721
       YYY      -2.1747    XXZ      -0.0000    XYZ       0.0000
       YYZ      -0.0000    XZZ      -5.4220    YZZ      -0.7367
       ZZZ      -0.0000
    Hexadecapole Moments (Debye-Ang^3)
      XXXX     -98.3250   XXXY      -4.1901   XXYY     -26.9142
      XYYY       1.2610   YYYY     -15.3776   XXXZ      -0.0000
      XXYZ       0.0000   XYYZ      -0.0000   YYYZ      -0.0000
      XXZZ     -26.9880   XYZZ       0.4958   YYZZ      -3.9534
      XZZZ      -0.0000   YZZZ       0.0000   ZZZZ      -8.1329
 -----------------------------------------------------------------
 Calculating analytic gradient of the SCF energy
 Gradient of SCF Energy
            1           2           3
    1  -0.0784920   0.0703097   0.0081823
    2   0.0427327  -0.0363922  -0.0063405
    3   0.0000000  -0.0000000   0.0000000
 Max gradient component =       7.849E-02
 RMS gradient           =       3.995E-02
 Gradient time:  CPU 7.82 s  wall 0.69 s
 Geometry Optimization Parameters
   NAtoms,    NIC,     NZ,  NCons,   NDum,   NFix, NCnnct, MaxDiis
        3       9       0       0       0       0       0       0

 Cartesian Hessian Update
 Hessian Updated using BFGS Update


** GEOMETRY OPTIMIZATION IN DELOCALIZED INTERNAL COORDINATES **
   Searching for a Minimum

   Optimization Cycle:   2

                       Coordinates (Angstroms)
     ATOM                X               Y               Z
      1  O         1.9356434789   -0.3140337465    0.0000000000
      2  O         0.9380185078    0.4273679231    0.0000000000
      3  Fe       -0.9648054413   -0.0104511990    0.0000000000
   Point Group: cs    Number of degrees of freedom:     3


   Energy is  -1412.032213871

 Hessian Updated using BFGS Update

  3 Hessian modes will be used to form the next step
  Hessian Eigenvalues:
     0.209910    0.220575    0.987934

 Minimum Search - Taking Simple RFO Step
 Searching for Lamda that Minimizes Along All modes
 Value Taken    Lamda =  -0.01398630
 Step Taken.  Stepsize is  0.191253

                             Maximum     Tolerance    Cnvgd?
         Gradient           0.057711      0.000300      NO
         Displacement       0.180279      0.001200      NO
         Energy change     -0.037019      0.000001      NO


 New Cartesian Coordinates Obtained by Inverse Iteration

 Displacement from previous Coordinates is:  0.258914
 ----------------------------------------------------------------
             Standard Nuclear Orientation (Angstroms)
    I     Atom           X                Y                Z
 ----------------------------------------------------------------
    1      O       2.0281641846    -0.2893320419     0.0000000000
    2      O       0.9095812819     0.3682122584     0.0000000000
    3      Fe     -1.0288889211     0.0240027611     0.0000000000
 ----------------------------------------------------------------
 Molecular Point Group                 Cs    NOp =  2
 Largest Abelian Subgroup              Cs    NOp =  2
 Nuclear Repulsion Energy =   117.8253392258 hartrees
 There are       23 alpha and       16 beta electrons
 Applying Cartesian multipole field
    Component          Value
    ---------          -----
     (2,0,0)        1.00000E-11
     (0,2,0)        2.00000E-11
     (0,0,2)       -3.00000E-11
 Nucleus-field energy     =     0.0000000025 hartrees
 Requested basis set is 6-31G(d)
 There are 16 shells and 66 basis functions
 A cutoff of  1.0D-11 yielded    129 shell pairs
 There are      2304 function pairs (      2532 Cartesian)
 Smallest overlap matrix eigenvalue = 1.76E-03
 Guess MOs from SCF MO coefficient file

 -----------------------------------------------------------------------
  General SCF calculation program by
  Eric Jon Sundstrom, Paul Horn, Yuezhi Mao, Dmitri Zuev, Alec White,
  David Stuck, Shaama M.S., Shane Yost, Joonho Lee, David Small,
  Daniel Levine, Susi Lehtola, Hugh Burton, Evgeny Epifanovsky
 -----------------------------------------------------------------------
 Exchange:     0.2000 Hartree-Fock + 0.0800 Slater + 0.7200 B88
 Correlation:  0.1900 VWN1RPA + 0.8100 LYP
 Using SG-1 standard quadrature grid
 using 12 threads for integral computing
 -------------------------------------------------------
 OpenMP Integral computing Module                
 Release: version 1.0, May 2013, Q-Chem Inc. Pittsburgh 
 -------------------------------------------------------
 -------------------------------------------------------
 OpenMP BLAS3 based DFT computing Module                
 Release: version 1.0, May 2013, Q-Chem Inc. Pittsburgh 
 -------------------------------------------------------
 A unrestricted SCF calculation will be
 performed using DIIS
 SCF converges when DIIS error is below 1.0e-08
 ---------------------------------------
  Cycle       Energy         DIIS error
 ---------------------------------------
    1   -1412.0303314014      1.66e-03  
    2   -1412.0303265965      2.41e-03  
    3   -1412.0279586892      2.53e-03  
    4   -1412.0413086401      6.25e-04  
    5   -1412.0416930063      3.74e-04  
    6   -1412.0419169758      2.22e-04  
    7   -1412.0420527978      9.31e-05  
    8   -1412.0421105453      8.91e-05  
    9   -1412.0421962523      1.04e-04  
   10   -1412.0422280650      6.05e-05  
   11   -1412.0422330333      1.96e-05  
   12   -1412.0422352591      7.83e-06  
   13   -1412.0422354407      1.56e-06  
   14   -1412.0422354618      4.40e-07  
   15   -1412.0422354693      2.85e-07  
   16   -1412.0422354695      2.99e-07  
   17   -1412.0422354698      5.23e-08  
   18   -1412.0422354698      1.25e-08  
   19   -1412.0422354698      9.30e-10  Convergence criterion met
 ---------------------------------------
 SCF time:   CPU 22.90s  wall 2.00s 
<S^2> =         15.760524399
 SCF   energy in the final basis set =    -1412.0422354698
 Total energy in the final basis set =    -1412.0422354698
 
 --------------------------------------------------------------
             Orbital Energies (a.u.) and Symmetries
 --------------------------------------------------------------
 
 Alpha MOs, Unrestricted
 -- Occupied --                  
-257.22  -31.22  -27.09  -27.08  -27.07  -20.20  -20.14   -4.67
  1 A'    2 A'    3 A'    1 A"    4 A'    5 A'    6 A'    7 A'                 
 -3.461  -3.437  -3.430  -2.075  -1.698  -1.440  -1.434  -1.432
  8 A'    2 A"    9 A'   10 A'   11 A'   12 A'    3 A"   13 A'                 
 -1.430  -1.410  -1.350  -1.348  -1.334  -1.156  -1.149
 14 A'    4 A"    5 A"   15 A'   16 A'    6 A"   17 A'                         
 -- Virtual --                   
 -0.919  -0.741  -0.679  -0.674  -0.585  -0.437  -0.325  -0.324
 18 A'   19 A'    7 A"   20 A'   21 A'   22 A'   23 A'    8 A"                 
 -0.317   0.024   0.039   0.059   0.121   0.144   0.152   0.177
 24 A'   25 A'    9 A"   26 A'   27 A'   28 A'   10 A"   29 A'                 
  0.328   0.410   0.426   0.427   0.473   0.575   0.672   0.689
 30 A'   31 A'   11 A"   32 A'   12 A"   33 A'   34 A'   13 A"                 
  0.758   0.770   1.001   1.041   1.051   1.186   1.187   1.198
 35 A'   14 A"   36 A'   15 A"   37 A'   38 A'   16 A"   17 A"                 
  1.199   1.230   1.322   1.447   1.474   1.672   1.914   2.152
 39 A'   40 A'   18 A"   41 A'   42 A'   19 A"   43 A'   44 A'                 
  2.508   2.835  19.216
 45 A'   46 A'   47 A'                                                         
 
 Beta MOs, Unrestricted
 -- Occupied --                  
-257.22  -31.13  -27.01  -27.00  -27.00  -20.15  -20.11   -4.45
  1 A'    2 A'    3 A'    1 A"    4 A'    5 A'    6 A'    7 A'                 
 -3.209  -3.205  -3.201  -1.989  -1.592  -1.319  -1.231  -1.211
  8 A'    2 A"    9 A'   10 A'   11 A'   12 A'   13 A'    3 A"                 
 -- Virtual --                   
 -1.119  -1.091  -1.087  -1.087  -1.064  -0.931  -0.906  -0.869
  4 A"   14 A'   15 A'    5 A"   16 A'   17 A'    6 A"   18 A'                 
 -0.689  -0.646  -0.637  -0.557  -0.422  -0.307  -0.306  -0.295
 19 A'    7 A"   20 A'   21 A'   22 A'   23 A'    8 A"   24 A'                 
  0.066   0.103   0.110   0.147   0.190   0.230   0.232   0.394
 25 A'   26 A'    9 A"   27 A'   28 A'   29 A'   10 A"   30 A'                 
  0.475   0.548   0.549   0.549   0.622   0.742   0.748   0.833
 31 A'   11 A"   32 A'   12 A"   33 A'   34 A'   13 A"   35 A'                 
  0.847   1.087   1.131   1.140   1.284   1.285   1.287   1.289
 14 A"   36 A'   15 A"   37 A'   16 A"   38 A'   39 A'   17 A"                 
  1.304   1.398   1.514   1.534   1.733   1.971   2.193   2.570
 40 A'   18 A"   41 A'   42 A'   19 A"   43 A'   44 A'   45 A'                 
  2.884  19.341
 46 A'   47 A'                                                                 
 --------------------------------------------------------------
 
          Ground-State Mulliken Net Atomic Charges

     Atom                 Charge (a.u.)    Spin (a.u.)
  --------------------------------------------------------
      1 O                     0.683393       1.623490
      2 O                    -0.003977       0.878309
      3 Fe                    2.320585       4.498201
  --------------------------------------------------------
  Sum of atomic charges =     3.000000
  Sum of spin   charges =     7.000000

 -----------------------------------------------------------------
                    Cartesian Multipole Moments
 -----------------------------------------------------------------
    Charge (ESU x 10^10)
                14.4096
    Dipole Moment (Debye)
         X      -4.7401      Y      -0.5034      Z       0.0000
       Tot       4.7667
    Quadrupole Moments (Debye-Ang)
        XX      11.9772     XY      -1.8967     YY     -15.1158
        XZ       0.0000     YZ      -0.0000     ZZ     -15.4431
    Octopole Moments (Debye-Ang^2)
       XXX       0.7802    XXY      -3.7745    XYY      -4.8508
       YYY      -2.4388    XXZ       0.0000    XYZ       0.0000
       YYZ       0.0000    XZZ      -4.9312    YZZ      -0.7910
       ZZZ       0.0000
    Hexadecapole Moments (Debye-Ang^3)
      XXXX     -94.7935   XXXY      -5.3419   XXYY     -28.6096
      XYYY       2.3611   YYYY     -13.8032   XXXZ       0.0000
      XXYZ       0.0000   XYYZ      -0.0000   YYYZ       0.0000
      XXZZ     -28.7236   XYZZ       0.8773   YYZZ      -3.6332
      XZZZ       0.0000   YZZZ       0.0000   ZZZZ      -7.9746
 -----------------------------------------------------------------
 Calculating analytic gradient of the SCF energy
 Gradient of SCF Energy
            1           2           3
    1  -0.0332022   0.0262514   0.0069509
    2   0.0113071  -0.0077950  -0.0035122
    3   0.0000000  -0.0000000  -0.0000000
 Max gradient component =       3.320E-02
 RMS gradient           =       1.506E-02
 Gradient time:  CPU 7.77 s  wall 0.69 s
 Geometry Optimization Parameters
   NAtoms,    NIC,     NZ,  NCons,   NDum,   NFix, NCnnct, MaxDiis
        3       9       0       0       0       0       0       0

 Cartesian Hessian Update
 Hessian Updated using BFGS Update


** GEOMETRY OPTIMIZATION IN DELOCALIZED INTERNAL COORDINATES **
   Searching for a Minimum

   Optimization Cycle:   3

                       Coordinates (Angstroms)
     ATOM                X               Y               Z
      1  O         2.0281641846   -0.2893320419    0.0000000000
      2  O         0.9095812819    0.3682122584    0.0000000000
      3  Fe       -1.0288889211    0.0240027611    0.0000000000
   Point Group: cs    Number of degrees of freedom:     3


   Energy is  -1412.042235470

 Hessian Updated using BFGS Update

  3 Hessian modes will be used to form the next step
  Hessian Eigenvalues:
     0.139003    0.214471    0.854682

 Minimum Search - Taking Simple RFO Step
 Searching for Lamda that Minimizes Along All modes
 Value Taken    Lamda =  -0.00586258
 Step Taken.  Stepsize is  0.187272

                             Maximum     Tolerance    Cnvgd?
         Gradient           0.026627      0.000300      NO
         Displacement       0.184189      0.001200      NO
         Energy change     -0.010022      0.000001      NO


 New Cartesian Coordinates Obtained by Inverse Iteration

 Displacement from previous Coordinates is:  0.256168
 ----------------------------------------------------------------
             Standard Nuclear Orientation (Angstroms)
    I     Atom           X                Y                Z
 ----------------------------------------------------------------
    1      O       2.1102955261    -0.2558360845     0.0000000000
    2      O       0.8907342243     0.2986085468     0.0000000000
    3      Fe     -1.0921732050     0.0601105153     0.0000000000
 ----------------------------------------------------------------
 Molecular Point Group                 Cs    NOp =  2
 Largest Abelian Subgroup              Cs    NOp =  2
 Nuclear Repulsion Energy =   114.5957665546 hartrees
 There are       23 alpha and       16 beta electrons
 Applying Cartesian multipole field
    Component          Value
    ---------          -----
     (2,0,0)        1.00000E-11
     (0,2,0)        2.00000E-11
     (0,0,2)       -3.00000E-11
 Nucleus-field energy     =     0.0000000027 hartrees
 Requested basis set is 6-31G(d)
 There are 16 shells and 66 basis functions
 A cutoff of  1.0D-11 yielded    127 shell pairs
 There are      2291 function pairs (      2516 Cartesian)
 Smallest overlap matrix eigenvalue = 1.76E-03
 Guess MOs from SCF MO coefficient file

 -----------------------------------------------------------------------
  General SCF calculation program by
  Eric Jon Sundstrom, Paul Horn, Yuezhi Mao, Dmitri Zuev, Alec White,
  David Stuck, Shaama M.S., Shane Yost, Joonho Lee, David Small,
  Daniel Levine, Susi Lehtola, Hugh Burton, Evgeny Epifanovsky
 -----------------------------------------------------------------------
 Exchange:     0.2000 Hartree-Fock + 0.0800 Slater + 0.7200 B88
 Correlation:  0.1900 VWN1RPA + 0.8100 LYP
 Using SG-1 standard quadrature grid
 using 12 threads for integral computing
 -------------------------------------------------------
 OpenMP Integral computing Module                
 Release: version 1.0, May 2013, Q-Chem Inc. Pittsburgh 
 -------------------------------------------------------
 -------------------------------------------------------
 OpenMP BLAS3 based DFT computing Module                
 Release: version 1.0, May 2013, Q-Chem Inc. Pittsburgh 
 -------------------------------------------------------
 A unrestricted SCF calculation will be
 performed using DIIS
 SCF converges when DIIS error is below 1.0e-08
 ---------------------------------------
  Cycle       Energy         DIIS error
 ---------------------------------------
    1   -1412.0360804498      1.46e-03  
    2   -1412.0383283844      1.95e-03  
    3   -1412.0327768050      2.47e-03  
    4   -1412.0456264670      4.13e-04  
    5   -1412.0456634367      3.77e-04  
    6   -1412.0458697616      2.43e-04  
    7   -1412.0459991376      9.70e-05  
    8   -1412.0460303814      5.27e-05  
    9   -1412.0460395459      1.98e-05  
   10   -1412.0460411652      3.14e-06  
   11   -1412.0460415922      2.76e-06  
   12   -1412.0460418806      2.28e-06  
   13   -1412.0460419413      3.02e-07  
   14   -1412.0460419426      9.51e-08  
   15   -1412.0460419426      2.02e-08  
   16   -1412.0460419426      2.76e-09  Convergence criterion met
 ---------------------------------------
 SCF time:   CPU 19.12s  wall 1.00s 
<S^2> =         15.761001277
 SCF   energy in the final basis set =    -1412.0460419426
 Total energy in the final basis set =    -1412.0460419426
 
 --------------------------------------------------------------
             Orbital Energies (a.u.) and Symmetries
 --------------------------------------------------------------
 
 Alpha MOs, Unrestricted
 -- Occupied --                  
-257.18  -31.19  -27.05  -27.04  -27.03  -20.21  -20.14   -4.64
  1 A'    2 A'    3 A'    1 A"    4 A'    5 A'    6 A'    7 A'                 
 -3.432  -3.400  -3.395  -2.045  -1.706  -1.415  -1.403  -1.403
  8 A'    2 A"    9 A'   10 A'   11 A'   12 A'    3 A"   13 A'                 
 -1.400  -1.375  -1.339  -1.332  -1.322  -1.168  -1.152
 14 A'    4 A"    5 A"   15 A'   16 A'    6 A"   17 A'                         
 -- Virtual --                   
 -0.912  -0.771  -0.668  -0.666  -0.581  -0.434  -0.319  -0.316
 18 A'   19 A'   20 A'    7 A"   21 A'   22 A'   23 A'    8 A"                 
 -0.313   0.038   0.039   0.069   0.133   0.144   0.153   0.174
 24 A'   25 A'    9 A"   26 A'   27 A'   28 A'   10 A"   29 A'                 
  0.324   0.427   0.449   0.450   0.486   0.587   0.677   0.697
 30 A'   31 A'   11 A"   32 A'   12 A"   33 A'   34 A'   13 A"                 
  0.776   0.784   1.008   1.042   1.050   1.201   1.208   1.209
 35 A'   14 A"   36 A'   15 A"   37 A'   38 A'   39 A'   16 A"                 
  1.221   1.222   1.302   1.359   1.453   1.633   1.844   2.197
 17 A"   40 A'   18 A"   41 A'   42 A'   19 A"   43 A'   44 A'                 
  2.491   2.813  19.242
 45 A'   46 A'   47 A'                                                         
 
 Beta MOs, Unrestricted
 -- Occupied --                  
-257.18  -31.10  -26.97  -26.96  -26.96  -20.16  -20.11   -4.42
  1 A'    2 A'    3 A'    1 A"    4 A'    5 A'    6 A'    7 A'                 
 -3.180  -3.175  -3.172  -1.954  -1.596  -1.312  -1.212  -1.190
  8 A'    2 A"    9 A'   10 A'   11 A'   12 A'   13 A'    3 A"                 
 -- Virtual --                   
 -1.102  -1.064  -1.061  -1.059  -1.035  -0.934  -0.909  -0.865
  4 A"   14 A'   15 A'    5 A"   16 A'   17 A'    6 A"   18 A'                 
 -0.712  -0.636  -0.635  -0.556  -0.419  -0.301  -0.299  -0.292
 19 A'   20 A'    7 A"   21 A'   22 A'   23 A'    8 A"   24 A'                 
  0.084   0.111   0.115   0.162   0.182   0.231   0.234   0.392
 25 A'   26 A'    9 A"   27 A'   28 A'   29 A'   10 A"   30 A'                 
  0.490   0.558   0.572   0.572   0.630   0.752   0.759   0.854
 31 A'   11 A"   12 A"   32 A'   33 A'   34 A'   13 A"   35 A'                 
  0.861   1.094   1.134   1.140   1.264   1.304   1.306   1.309
 14 A"   36 A'   15 A"   37 A'   38 A'   16 A"   39 A'   40 A'                 
  1.310   1.377   1.435   1.518   1.697   1.902   2.240   2.554
 17 A"   18 A"   41 A'   42 A'   19 A"   43 A'   44 A'   45 A'                 
  2.865  19.365
 46 A'   47 A'                                                                 
 --------------------------------------------------------------
 
          Ground-State Mulliken Net Atomic Charges

     Atom                 Charge (a.u.)    Spin (a.u.)
  --------------------------------------------------------
      1 O                     0.715503       1.652088
      2 O                     0.002048       0.930689
      3 Fe                    2.282449       4.417223
  --------------------------------------------------------
  Sum of atomic charges =     3.000000
  Sum of spin   charges =     7.000000

 -----------------------------------------------------------------
                    Cartesian Multipole Moments
 -----------------------------------------------------------------
    Charge (ESU x 10^10)
                14.4096
    Dipole Moment (Debye)
         X      -4.5756      Y      -0.0739      Z       0.0000
       Tot       4.5762
    Quadrupole Moments (Debye-Ang)
        XX      14.9850     XY      -2.4521     YY     -15.1786
        XZ      -0.0000     YZ      -0.0000     ZZ     -15.3807
    Octopole Moments (Debye-Ang^2)
       XXX       4.4653    XXY      -3.6422    XYY      -4.8300
       YYY      -2.5954    XXZ      -0.0000    XYZ      -0.0000
       YYZ       0.0000    XZZ      -4.4983    YZZ      -0.8391
       ZZZ       0.0000
    Hexadecapole Moments (Debye-Ang^3)
      XXXX     -90.4866   XXXY      -5.8203   XXYY     -30.4931
      XYYY       3.5008   YYYY     -12.2435   XXXZ      -0.0000
      XXYZ      -0.0000   XYYZ      -0.0000   YYYZ      -0.0000
      XXZZ     -30.5613   XYZZ       1.2507   YYZZ      -3.3376
      XZZZ      -0.0000   YZZZ      -0.0000   ZZZZ      -7.8426
 -----------------------------------------------------------------
 Calculating analytic gradient of the SCF energy
 Gradient of SCF Energy
            1           2           3
    1  -0.0042912  -0.0017009   0.0059921
    2  -0.0018157   0.0033391  -0.0015235
    3   0.0000000  -0.0000000   0.0000000
 Max gradient component =       5.992E-03
 RMS gradient           =       2.867E-03
 Gradient time:  CPU 7.69 s  wall 0.68 s
 Geometry Optimization Parameters
   NAtoms,    NIC,     NZ,  NCons,   NDum,   NFix, NCnnct, MaxDiis
        3       9       0       0       0       0       0       0

 Cartesian Hessian Update
 Hessian Updated using BFGS Update


** GEOMETRY OPTIMIZATION IN DELOCALIZED INTERNAL COORDINATES **
   Searching for a Minimum

   Optimization Cycle:   4

                       Coordinates (Angstroms)
     ATOM                X               Y               Z
      1  O         2.1102955261   -0.2558360845    0.0000000000
      2  O         0.8907342243    0.2986085468    0.0000000000
      3  Fe       -1.0921732050    0.0601105153    0.0000000000
   Point Group: cs    Number of degrees of freedom:     3


   Energy is  -1412.046041943

 Hessian Updated using BFGS Update

  3 Hessian modes will be used to form the next step
  Hessian Eigenvalues:
     0.088832    0.217955    0.912295

 Minimum Search - Taking Simple RFO Step
 Searching for Lamda that Minimizes Along All modes
 Value Taken    Lamda =  -0.00127763
 Step Taken.  Stepsize is  0.118741

                             Maximum     Tolerance    Cnvgd?
         Gradient           0.010499      0.000300      NO
         Displacement       0.117459      0.001200      NO
         Energy change     -0.003806      0.000001      NO


 New Cartesian Coordinates Obtained by Inverse Iteration

 Displacement from previous Coordinates is:  0.158792
 ----------------------------------------------------------------
             Standard Nuclear Orientation (Angstroms)
    I     Atom           X                Y                Z
 ----------------------------------------------------------------
    1      O       2.1548408461    -0.2309530963     0.0000000000
    2      O       0.8865214602     0.2507876956     0.0000000000
    3      Fe     -1.1325057609     0.0830483782     0.0000000000
 ----------------------------------------------------------------
 Molecular Point Group                 Cs    NOp =  2
 Largest Abelian Subgroup              Cs    NOp =  2
 Nuclear Repulsion Energy =   112.6220279281 hartrees
 There are       23 alpha and       16 beta electrons
 Applying Cartesian multipole field
    Component          Value
    ---------          -----
     (2,0,0)        1.00000E-11
     (0,2,0)        2.00000E-11
     (0,0,2)       -3.00000E-11
 Nucleus-field energy     =     0.0000000028 hartrees
 Requested basis set is 6-31G(d)
 There are 16 shells and 66 basis functions
 A cutoff of  1.0D-11 yielded    126 shell pairs
 There are      2267 function pairs (      2492 Cartesian)
 Smallest overlap matrix eigenvalue = 1.76E-03
 Guess MOs from SCF MO coefficient file

 -----------------------------------------------------------------------
  General SCF calculation program by
  Eric Jon Sundstrom, Paul Horn, Yuezhi Mao, Dmitri Zuev, Alec White,
  David Stuck, Shaama M.S., Shane Yost, Joonho Lee, David Small,
  Daniel Levine, Susi Lehtola, Hugh Burton, Evgeny Epifanovsky
 -----------------------------------------------------------------------
 Exchange:     0.2000 Hartree-Fock + 0.0800 Slater + 0.7200 B88
 Correlation:  0.1900 VWN1RPA + 0.8100 LYP
 Using SG-1 standard quadrature grid
 using 12 threads for integral computing
 -------------------------------------------------------
 OpenMP Integral computing Module                
 Release: version 1.0, May 2013, Q-Chem Inc. Pittsburgh 
 -------------------------------------------------------
 -------------------------------------------------------
 OpenMP BLAS3 based DFT computing Module                
 Release: version 1.0, May 2013, Q-Chem Inc. Pittsburgh 
 -------------------------------------------------------
 A unrestricted SCF calculation will be
 performed using DIIS
 SCF converges when DIIS error is below 1.0e-08
 ---------------------------------------
  Cycle       Energy         DIIS error
 ---------------------------------------
    1   -1412.0434394220      8.29e-04  
    2   -1412.0448880817      1.02e-03  
    3   -1412.0424139534      1.46e-03  
    4   -1412.0467848066      2.56e-04  
    5   -1412.0468535048      1.94e-04  
    6   -1412.0468923467      1.28e-04  
    7   -1412.0469289356      3.70e-05  
    8   -1412.0469332157      1.65e-05  
    9   -1412.0469345893      4.37e-06  
   10   -1412.0469353654      2.88e-06  
   11   -1412.0469359440      1.58e-06  
   12   -1412.0469360504      8.26e-07  
   13   -1412.0469360543      2.64e-07  
   14   -1412.0469360544      1.51e-08  
   15   -1412.0469360544      4.74e-09  Convergence criterion met
 ---------------------------------------
 SCF time:   CPU 18.04s  wall 1.00s 
<S^2> =         15.761178782
 SCF   energy in the final basis set =    -1412.0469360544
 Total energy in the final basis set =    -1412.0469360544
 
 --------------------------------------------------------------
             Orbital Energies (a.u.) and Symmetries
 --------------------------------------------------------------
 
 Alpha MOs, Unrestricted
 -- Occupied --                  
-257.16  -31.17  -27.03  -27.02  -27.01  -20.21  -20.14   -4.62
  1 A'    2 A'    3 A'    1 A"    4 A'    5 A'    6 A'    7 A'                 
 -3.417  -3.380  -3.376  -2.032  -1.707  -1.402  -1.387  -1.386
  8 A'    2 A"    9 A'   10 A'   11 A'   12 A'   13 A'    3 A"                 
 -1.384  -1.358  -1.331  -1.324  -1.316  -1.172  -1.152
 14 A'    4 A"    5 A"   15 A'   16 A'    6 A"   17 A'                         
 -- Virtual --                   
 -0.909  -0.781  -0.663  -0.659  -0.580  -0.433  -0.316  -0.313
 18 A'   19 A'   20 A'    7 A"   21 A'   22 A'   23 A'    8 A"                 
 -0.312   0.039   0.044   0.073   0.134   0.149   0.154   0.174
 24 A'    9 A"   25 A'   26 A'   27 A'   28 A'   10 A"   29 A'                 
  0.315   0.444   0.462   0.463   0.495   0.587   0.681   0.701
 30 A'   31 A'   11 A"   32 A'   12 A"   33 A'   34 A'   13 A"                 
  0.785   0.789   1.009   1.044   1.048   1.187   1.219   1.220
 35 A'   14 A"   36 A'   15 A"   37 A'   38 A'   39 A'   16 A"                 
  1.233   1.233   1.293   1.318   1.464   1.615   1.792   2.213
 17 A"   40 A'   18 A"   41 A'   42 A'   19 A"   43 A'   44 A'                 
  2.482   2.801  19.255
 45 A'   46 A'   47 A'                                                         
 
 Beta MOs, Unrestricted
 -- Occupied --                  
-257.16  -31.08  -26.95  -26.94  -26.94  -20.16  -20.11   -4.40
  1 A'    2 A'    3 A'    1 A"    4 A'    5 A'    6 A'    7 A'                 
 -3.165  -3.158  -3.157  -1.939  -1.595  -1.307  -1.203  -1.179
  8 A'    2 A"    9 A'   10 A'   11 A'   12 A'   13 A'    3 A"                 
 -- Virtual --                   
 -1.094  -1.050  -1.047  -1.044  -1.019  -0.933  -0.908  -0.863
  4 A"   14 A'   15 A'    5 A"   16 A'   17 A'    6 A"   18 A'                 
 -0.722  -0.632  -0.629  -0.555  -0.418  -0.297  -0.295  -0.291
 19 A'   20 A'    7 A"   21 A'   22 A'   23 A'    8 A"   24 A'                 
  0.093   0.113   0.118   0.169   0.180   0.233   0.237   0.383
 25 A'   26 A'    9 A"   27 A'   28 A'   29 A'   10 A"   30 A'                 
  0.508   0.565   0.584   0.585   0.630   0.756   0.765   0.864
 31 A'   11 A"   12 A"   32 A'   33 A'   34 A'   13 A"   35 A'                 
  0.868   1.093   1.137   1.141   1.246   1.315   1.316   1.320
 14 A"   36 A'   15 A"   37 A'   38 A'   16 A"   39 A'   40 A'                 
  1.321   1.367   1.400   1.529   1.681   1.852   2.256   2.546
 17 A"   18 A"   41 A'   42 A'   19 A"   43 A'   44 A'   45 A'                 
  2.854  19.377
 46 A'   47 A'                                                                 
 --------------------------------------------------------------
 
          Ground-State Mulliken Net Atomic Charges

     Atom                 Charge (a.u.)    Spin (a.u.)
  --------------------------------------------------------
      1 O                     0.726229       1.657615
      2 O                     0.012291       0.969157
      3 Fe                    2.261480       4.373228
  --------------------------------------------------------
  Sum of atomic charges =     3.000000
  Sum of spin   charges =     7.000000

 -----------------------------------------------------------------
                    Cartesian Multipole Moments
 -----------------------------------------------------------------
    Charge (ESU x 10^10)
                14.4096
    Dipole Moment (Debye)
         X      -4.5660      Y       0.2266      Z       0.0000
       Tot       4.5716
    Quadrupole Moments (Debye-Ang)
        XX      16.7098     XY      -2.7095     YY     -15.2083
        XZ       0.0000     YZ       0.0000     ZZ     -15.3375
    Octopole Moments (Debye-Ang^2)
       XXX       6.1750    XXY      -3.2574    XYY      -4.8773
       YYY      -2.6437    XXZ      -0.0000    XYZ      -0.0000
       YYZ       0.0000    XZZ      -4.2454    YZZ      -0.8657
       ZZZ       0.0000
    Hexadecapole Moments (Debye-Ang^3)
      XXXX     -88.4775   XXXY      -5.6667   XXYY     -31.7991
      XYYY       4.1966   YYYY     -11.3671   XXXZ       0.0000
      XXYZ      -0.0000   XYYZ       0.0000   YYYZ      -0.0000
      XXZZ     -31.7627   XYZZ       1.4742   YYZZ      -3.1760
      XZZZ       0.0000   YZZZ      -0.0000   ZZZZ      -7.7598
 -----------------------------------------------------------------
 Calculating analytic gradient of the SCF energy
 Gradient of SCF Energy
            1           2           3
    1   0.0058710  -0.0112013   0.0053303
    2  -0.0042995   0.0050756  -0.0007761
    3  -0.0000000   0.0000000  -0.0000000
 Max gradient component =       1.120E-02
 RMS gradient           =       5.090E-03
 Gradient time:  CPU 7.76 s  wall 0.69 s
 Geometry Optimization Parameters
   NAtoms,    NIC,     NZ,  NCons,   NDum,   NFix, NCnnct, MaxDiis
        3       9       0       0       0       0       0       0

 Cartesian Hessian Update
 Hessian Updated using BFGS Update


** GEOMETRY OPTIMIZATION IN DELOCALIZED INTERNAL COORDINATES **
   Searching for a Minimum

   Optimization Cycle:   5

                       Coordinates (Angstroms)
     ATOM                X               Y               Z
      1  O         2.1548408461   -0.2309530963    0.0000000000
      2  O         0.8865214602    0.2507876956    0.0000000000
      3  Fe       -1.1325057609    0.0830483782    0.0000000000
   Point Group: cs    Number of degrees of freedom:     3


   Energy is  -1412.046936054

 Hessian Updated using BFGS Update

  3 Hessian modes will be used to form the next step
  Hessian Eigenvalues:
     0.045253    0.221443    1.023109

 Minimum Search - Taking Simple RFO Step
 Searching for Lamda that Minimizes Along All modes
 Value Taken    Lamda =  -0.00072130
 Step Taken.  Stepsize is  0.118313

                             Maximum     Tolerance    Cnvgd?
         Gradient           0.008265      0.000300      NO
         Displacement       0.112065      0.001200      NO
         Energy change     -0.000894      0.000001      NO


 New Cartesian Coordinates Obtained by Inverse Iteration

 Displacement from previous Coordinates is:  0.149060
 ----------------------------------------------------------------
             Standard Nuclear Orientation (Angstroms)
    I     Atom           X                Y                Z
 ----------------------------------------------------------------
    1      O       2.1912247023    -0.2053036861     0.0000000000
    2      O       0.8893726283     0.2035841730     0.0000000000
    3      Fe     -1.1717407852     0.1046024907     0.0000000000
 ----------------------------------------------------------------
 Molecular Point Group                 Cs    NOp =  2
 Largest Abelian Subgroup              Cs    NOp =  2
 Nuclear Repulsion Energy =   110.7521028384 hartrees
 There are       23 alpha and       16 beta electrons
 Applying Cartesian multipole field
    Component          Value
    ---------          -----
     (2,0,0)        1.00000E-11
     (0,2,0)        2.00000E-11
     (0,0,2)       -3.00000E-11
 Nucleus-field energy     =     0.0000000029 hartrees
 Requested basis set is 6-31G(d)
 There are 16 shells and 66 basis functions
 A cutoff of  1.0D-11 yielded    125 shell pairs
 There are      2243 function pairs (      2468 Cartesian)
 Smallest overlap matrix eigenvalue = 1.76E-03
 Guess MOs from SCF MO coefficient file

 -----------------------------------------------------------------------
  General SCF calculation program by
  Eric Jon Sundstrom, Paul Horn, Yuezhi Mao, Dmitri Zuev, Alec White,
  David Stuck, Shaama M.S., Shane Yost, Joonho Lee, David Small,
  Daniel Levine, Susi Lehtola, Hugh Burton, Evgeny Epifanovsky
 -----------------------------------------------------------------------
 Exchange:     0.2000 Hartree-Fock + 0.0800 Slater + 0.7200 B88
 Correlation:  0.1900 VWN1RPA + 0.8100 LYP
 Using SG-1 standard quadrature grid
 using 12 threads for integral computing
 -------------------------------------------------------
 OpenMP Integral computing Module                
 Release: version 1.0, May 2013, Q-Chem Inc. Pittsburgh 
 -------------------------------------------------------
 -------------------------------------------------------
 OpenMP BLAS3 based DFT computing Module                
 Release: version 1.0, May 2013, Q-Chem Inc. Pittsburgh 
 -------------------------------------------------------
 A unrestricted SCF calculation will be
 performed using DIIS
 SCF converges when DIIS error is below 1.0e-08
 ---------------------------------------
  Cycle       Energy         DIIS error
 ---------------------------------------
    1   -1412.0445556264      7.45e-04  
    2   -1412.0459856621      8.94e-04  
    3   -1412.0441897544      1.25e-03  
    4   -1412.0472362162      3.61e-04  
    5   -1412.0474388316      1.82e-04  
    6   -1412.0474835308      1.00e-04  
    7   -1412.0475052004      2.39e-05  
    8   -1412.0475073239      9.51e-06  
    9   -1412.0475082448      3.39e-06  
   10   -1412.0475095622      3.29e-06  
   11   -1412.0475103184      8.63e-07  
   12   -1412.0475103880      4.61e-07  
   13   -1412.0475103898      1.36e-07  
   14   -1412.0475103898      6.28e-08  
   15   -1412.0475103899      1.15e-08  
   16   -1412.0475103899      1.12e-09  Convergence criterion met
 ---------------------------------------
 SCF time:   CPU 18.86s  wall 2.00s 
<S^2> =         15.761207796
 SCF   energy in the final basis set =    -1412.0475103899
 Total energy in the final basis set =    -1412.0475103899
 
 --------------------------------------------------------------
             Orbital Energies (a.u.) and Symmetries
 --------------------------------------------------------------
 
 Alpha MOs, Unrestricted
 -- Occupied --                  
-257.15  -31.15  -27.02  -27.00  -27.00  -20.20  -20.13   -4.60
  1 A'    2 A'    3 A'    1 A"    4 A'    5 A'    6 A'    7 A'                 
 -3.403  -3.362  -3.360  -2.025  -1.705  -1.390  -1.373  -1.372
  8 A'    2 A"    9 A'   10 A'   11 A'   12 A'   13 A'    3 A"                 
 -1.370  -1.346  -1.323  -1.316  -1.311  -1.172  -1.149
 14 A'    4 A"    5 A"   15 A'   16 A'    6 A"   17 A'                         
 -- Virtual --                   
 -0.907  -0.783  -0.659  -0.654  -0.580  -0.433  -0.313  -0.312
 18 A'   19 A'   20 A'    7 A"   21 A'   22 A'   23 A'   24 A'                 
 -0.309   0.040   0.050   0.075   0.135   0.156   0.157   0.176
  8 A"    9 A"   25 A'   26 A'   27 A'   28 A'   10 A"   29 A'                 
  0.301   0.463   0.472   0.474   0.505   0.581   0.688   0.703
 30 A'   31 A'   11 A"   32 A'   12 A"   33 A'   34 A'   13 A"                 
  0.790   0.793   1.003   1.049   1.050   1.186   1.229   1.229
 35 A'   14 A"   36 A'   15 A"   37 A'   38 A'   39 A'   16 A"                 
  1.242   1.243   1.288   1.294   1.483   1.604   1.741   2.217
 40 A'   17 A"   18 A"   41 A'   42 A'   19 A"   43 A'   44 A'                 
  2.477   2.790  19.265
 45 A'   46 A'   47 A'                                                         
 
 Beta MOs, Unrestricted
 -- Occupied --                  
-257.14  -31.06  -26.94  -26.93  -26.93  -20.16  -20.10   -4.39
  1 A'    2 A'    3 A'    1 A"    4 A'    5 A'    6 A'    7 A'                 
 -3.152  -3.144  -3.143  -1.930  -1.591  -1.302  -1.195  -1.169
  8 A'    2 A"    9 A'   10 A'   11 A'   12 A'   13 A'    3 A"                 
 -- Virtual --                   
 -1.088  -1.038  -1.034  -1.031  -1.005  -0.931  -0.904  -0.863
  4 A"   14 A'   15 A'    5 A"   16 A'   17 A'    6 A"   18 A'                 
 -0.724  -0.628  -0.625  -0.555  -0.418  -0.294  -0.291  -0.291
 19 A'   20 A'    7 A"   21 A'   22 A'   23 A'    8 A"   24 A'                 
  0.100   0.115   0.121   0.170   0.185   0.237   0.240   0.368
 25 A'   26 A'    9 A"   27 A'   28 A'   29 A'   10 A"   30 A'                 
  0.529   0.574   0.595   0.595   0.628   0.759   0.767   0.871
 31 A'   11 A"   12 A"   32 A'   33 A'   34 A'   13 A"   35 A'                 
  0.872   1.086   1.142   1.144   1.242   1.324   1.325   1.330
 14 A"   36 A'   15 A"   37 A'   38 A'   16 A"   39 A'   40 A'                 
  1.330   1.362   1.381   1.549   1.671   1.801   2.260   2.541
 17 A"   18 A"   41 A'   42 A'   19 A"   43 A'   44 A'   45 A'                 
  2.844  19.387
 46 A'   47 A'                                                                 
 --------------------------------------------------------------
 
          Ground-State Mulliken Net Atomic Charges

     Atom                 Charge (a.u.)    Spin (a.u.)
  --------------------------------------------------------
      1 O                     0.729448       1.654440
      2 O                     0.027419       1.010230
      3 Fe                    2.243133       4.335330
  --------------------------------------------------------
  Sum of atomic charges =     3.000000
  Sum of spin   charges =     7.000000

 -----------------------------------------------------------------
                    Cartesian Multipole Moments
 -----------------------------------------------------------------
    Charge (ESU x 10^10)
                14.4096
    Dipole Moment (Debye)
         X      -4.6390      Y       0.5228      Z      -0.0000
       Tot       4.6683
    Quadrupole Moments (Debye-Ang)
        XX      18.1853     XY      -2.8937     YY     -15.2210
        XZ       0.0000     YZ      -0.0000     ZZ     -15.2916
    Octopole Moments (Debye-Ang^2)
       XXX       7.1129    XXY      -2.6849    XYY      -4.9546
       YYY      -2.6618    XXZ       0.0000    XYZ      -0.0000
       YYZ       0.0000    XZZ      -4.0167    YZZ      -0.8898
       ZZZ       0.0000
    Hexadecapole Moments (Debye-Ang^3)
      XXXX     -87.7249   XXXY      -5.1729   XXYY     -33.1172
      XYYY       4.8276   YYYY     -10.6610   XXXZ      -0.0000
      XXYZ      -0.0000   XYYZ       0.0000   YYYZ      -0.0000
      XXZZ     -32.9387   XYZZ       1.6776   YYZZ      -3.0472
      XZZZ       0.0000   YZZZ      -0.0000   ZZZZ      -7.6786
 -----------------------------------------------------------------
 Calculating analytic gradient of the SCF energy
 Gradient of SCF Energy
            1           2           3
    1   0.0097124  -0.0150248   0.0053124
    2  -0.0042094   0.0045035  -0.0002941
    3   0.0000000  -0.0000000  -0.0000000
 Max gradient component =       1.502E-02
 RMS gradient           =       6.552E-03
 Gradient time:  CPU 7.61 s  wall 0.68 s
 Geometry Optimization Parameters
   NAtoms,    NIC,     NZ,  NCons,   NDum,   NFix, NCnnct, MaxDiis
        3       9       0       0       0       0       0       0

 Cartesian Hessian Update
 Hessian Updated using BFGS Update


** GEOMETRY OPTIMIZATION IN DELOCALIZED INTERNAL COORDINATES **
   Searching for a Minimum

   Optimization Cycle:   6

                       Coordinates (Angstroms)
     ATOM                X               Y               Z
      1  O         2.1912247023   -0.2053036861    0.0000000000
      2  O         0.8893726283    0.2035841730    0.0000000000
      3  Fe       -1.1717407852    0.1046024907    0.0000000000
   Point Group: cs    Number of degrees of freedom:     3


   Energy is  -1412.047510390

 Hessian Updated using BFGS Update

  3 Hessian modes will be used to form the next step
  Hessian Eigenvalues:
     0.016978    0.226642    0.973798

 Minimum Search - Taking Simple RFO Step
 Searching for Lamda that Minimizes Along All modes
 Value Taken    Lamda =  -0.00122371
 Step Taken.  Stepsize is  0.242480

                             Maximum     Tolerance    Cnvgd?
         Gradient           0.010844      0.000300      NO
         Displacement       0.216902      0.001200      NO
         Energy change     -0.000574      0.000001      NO


 New Cartesian Coordinates Obtained by Inverse Iteration

 Displacement from previous Coordinates is:  0.282816
 ----------------------------------------------------------------
             Standard Nuclear Orientation (Angstroms)
    I     Atom           X                Y                Z
 ----------------------------------------------------------------
    1      O       2.2499797111    -0.1531310367     0.0000000000
    2      O       0.9052473262     0.1102617442     0.0000000000
    3      Fe     -1.2463704919     0.1457522700     0.0000000000
 ----------------------------------------------------------------
 Molecular Point Group                 Cs    NOp =  2
 Largest Abelian Subgroup              Cs    NOp =  2
 Nuclear Repulsion Energy =   107.2315883146 hartrees
 There are       23 alpha and       16 beta electrons
 Applying Cartesian multipole field
    Component          Value
    ---------          -----
     (2,0,0)        1.00000E-11
     (0,2,0)        2.00000E-11
     (0,0,2)       -3.00000E-11
 Nucleus-field energy     =     0.0000000032 hartrees
 Requested basis set is 6-31G(d)
 There are 16 shells and 66 basis functions
 A cutoff of  1.0D-11 yielded    125 shell pairs
 There are      2243 function pairs (      2468 Cartesian)
 Smallest overlap matrix eigenvalue = 1.76E-03
 Guess MOs from SCF MO coefficient file

 -----------------------------------------------------------------------
  General SCF calculation program by
  Eric Jon Sundstrom, Paul Horn, Yuezhi Mao, Dmitri Zuev, Alec White,
  David Stuck, Shaama M.S., Shane Yost, Joonho Lee, David Small,
  Daniel Levine, Susi Lehtola, Hugh Burton, Evgeny Epifanovsky
 -----------------------------------------------------------------------
 Exchange:     0.2000 Hartree-Fock + 0.0800 Slater + 0.7200 B88
 Correlation:  0.1900 VWN1RPA + 0.8100 LYP
 Using SG-1 standard quadrature grid
 using 12 threads for integral computing
 -------------------------------------------------------
 OpenMP Integral computing Module                
 Release: version 1.0, May 2013, Q-Chem Inc. Pittsburgh 
 -------------------------------------------------------
 -------------------------------------------------------
 OpenMP BLAS3 based DFT computing Module                
 Release: version 1.0, May 2013, Q-Chem Inc. Pittsburgh 
 -------------------------------------------------------
 A unrestricted SCF calculation will be
 performed using DIIS
 SCF converges when DIIS error is below 1.0e-08
 ---------------------------------------
  Cycle       Energy         DIIS error
 ---------------------------------------
    1   -1412.0384305965      1.40e-03  
    2   -1412.0437017635      1.69e-03  
    3   -1412.0384287088      2.24e-03  
    4   -1412.0474272448      8.80e-04  
    5   -1412.0488092349      3.21e-04  
    6   -1412.0489704063      1.36e-04  
    7   -1412.0490096262      3.15e-05  
    8   -1412.0490147677      1.03e-05  
    9   -1412.0490173735      8.15e-06  
   10   -1412.0490241595      4.76e-06  
   11   -1412.0490288263      9.06e-06  
   12   -1412.0490297432      1.33e-06  
   13   -1412.0490297981      2.46e-07  
   14   -1412.0490297983      1.01e-07  
   15   -1412.0490297984      6.07e-08  
   16   -1412.0490297984      2.81e-09  Convergence criterion met
 ---------------------------------------
 SCF time:   CPU 18.79s  wall 1.00s 
<S^2> =         15.761032320
 SCF   energy in the final basis set =    -1412.0490297984
 Total energy in the final basis set =    -1412.0490297984
 
 --------------------------------------------------------------
             Orbital Energies (a.u.) and Symmetries
 --------------------------------------------------------------
 
 Alpha MOs, Unrestricted
 -- Occupied --                  
-257.12  -31.12  -26.99  -26.96  -26.96  -20.20  -20.13   -4.57
  1 A'    2 A'    3 A'    1 A"    4 A'    5 A'    6 A'    7 A'                 
 -3.379  -3.332  -3.330  -2.016  -1.698  -1.368  -1.349  -1.347
  8 A'    2 A"    9 A'   10 A'   11 A'   12 A'   13 A'    3 A"                 
 -1.346  -1.334  -1.303  -1.302  -1.299  -1.170  -1.142
 14 A'    4 A"   15 A'   16 A'    5 A"    6 A"   17 A'                         
 -- Virtual --                   
 -0.904  -0.781  -0.652  -0.646  -0.582  -0.432  -0.311  -0.308
 18 A'   19 A'   20 A'    7 A"   21 A'   22 A'   23 A'   24 A'                 
 -0.303   0.042   0.058   0.077   0.136   0.165   0.170   0.181
  8 A"    9 A"   25 A'   26 A'   27 A'   10 A"   28 A'   29 A'                 
  0.270   0.491   0.493   0.501   0.525   0.562   0.699   0.700
 30 A'   11 A"   31 A'   32 A'   12 A"   33 A'   13 A"   34 A'                 
  0.798   0.798   0.977   1.057   1.057   1.202   1.246   1.246
 35 A'   14 A"   36 A'   37 A'   15 A"   38 A'   39 A'   16 A"                 
  1.259   1.260   1.276   1.291   1.519   1.590   1.647   2.214
 40 A'   17 A"   41 A'   18 A"   42 A'   19 A"   43 A'   44 A'                 
  2.472   2.775  19.286
 45 A'   46 A'   47 A'                                                         
 
 Beta MOs, Unrestricted
 -- Occupied --                  
-257.12  -31.03  -26.91  -26.90  -26.90  -20.15  -20.10   -4.36
  1 A'    2 A'    3 A'    1 A"    4 A'    5 A'    6 A'    7 A'                 
 -3.129  -3.120  -3.120  -1.918  -1.581  -1.291  -1.184  -1.152
  8 A'    2 A"    9 A'   10 A'   11 A'   12 A'   13 A'    3 A"                 
 -- Virtual --                   
 -1.078  -1.018  -1.012  -1.009  -0.982  -0.924  -0.895  -0.861
  4 A"   14 A'   15 A'    5 A"   16 A'   17 A'    6 A"   18 A'                 
 -0.721  -0.621  -0.618  -0.557  -0.419  -0.291  -0.288  -0.285
 19 A'   20 A'    7 A"   21 A'   22 A'   23 A'   24 A'    8 A"                 
  0.110   0.116   0.128   0.167   0.203   0.244   0.248   0.333
 25 A'   26 A'    9 A"   27 A'   28 A'   29 A'   10 A"   30 A'                 
  0.568   0.593   0.613   0.613   0.620   0.762   0.762   0.880
 31 A'   11 A"   32 A'   12 A"   33 A'   34 A'   13 A"   14 A"                 
  0.881   1.061   1.152   1.153   1.259   1.339   1.340   1.344
 35 A'   36 A'   15 A"   37 A'   38 A'   39 A'   16 A"   17 A"                 
  1.345   1.365   1.373   1.589   1.659   1.706   2.255   2.537
 40 A'   18 A"   41 A'   42 A'   19 A"   43 A'   44 A'   45 A'                 
  2.831  19.405
 46 A'   47 A'                                                                 
 --------------------------------------------------------------
 
          Ground-State Mulliken Net Atomic Charges

     Atom                 Charge (a.u.)    Spin (a.u.)
  --------------------------------------------------------
      1 O                     0.727144       1.642394
      2 O                     0.064943       1.087561
      3 Fe                    2.207913       4.270046
  --------------------------------------------------------
  Sum of atomic charges =     3.000000
  Sum of spin   charges =     7.000000

 -----------------------------------------------------------------
                    Cartesian Multipole Moments
 -----------------------------------------------------------------
    Charge (ESU x 10^10)
                14.4096
    Dipole Moment (Debye)
         X      -4.8643      Y       1.0810      Z      -0.0000
       Tot       4.9830
    Quadrupole Moments (Debye-Ang)
        XX      20.7265     XY      -3.1809     YY     -15.1948
        XZ       0.0000     YZ      -0.0000     ZZ     -15.2065
    Octopole Moments (Debye-Ang^2)
       XXX       7.7750    XXY      -1.2302    XYY      -5.1294
       YYY      -2.6772    XXZ      -0.0000    XYZ      -0.0000
       YYZ      -0.0000    XZZ      -3.6068    YZZ      -0.9460
       ZZZ      -0.0000
    Hexadecapole Moments (Debye-Ang^3)
      XXXX     -87.9907   XXXY      -3.6001   XXYY     -35.6835
      XYYY       5.9984   YYYY      -9.7755   XXXZ       0.0000
      XXYZ      -0.0000   XYYZ      -0.0000   YYYZ      -0.0000
      XXZZ     -35.2241   XYZZ       2.0667   YYZZ      -2.8864
      XZZZ       0.0000   YZZZ      -0.0000   ZZZZ      -7.5344
 -----------------------------------------------------------------
 Calculating analytic gradient of the SCF energy
 Gradient of SCF Energy
            1           2           3
    1   0.0103360  -0.0228675   0.0125315
    2  -0.0024398   0.0034005  -0.0009607
    3  -0.0000000   0.0000000   0.0000000
 Max gradient component =       2.287E-02
 RMS gradient           =       9.459E-03
 Gradient time:  CPU 7.59 s  wall 0.68 s
 Geometry Optimization Parameters
   NAtoms,    NIC,     NZ,  NCons,   NDum,   NFix, NCnnct, MaxDiis
        3       9       0       0       0       0       0       0

 Cartesian Hessian Update
 Hessian Updated using BFGS Update
**WARNING** Hereditary positive definiteness endangered


** GEOMETRY OPTIMIZATION IN DELOCALIZED INTERNAL COORDINATES **
   Searching for a Minimum

   Optimization Cycle:   7

                       Coordinates (Angstroms)
     ATOM                X               Y               Z
      1  O         2.2499797111   -0.1531310367    0.0000000000
      2  O         0.9052473262    0.1102617442    0.0000000000
      3  Fe       -1.2463704919    0.1457522700    0.0000000000
   Point Group: cs    Number of degrees of freedom:     3


   Energy is  -1412.049029798

 Hessian Updated using BFGS Update
**WARNING** Hereditary positive definiteness endangered

  3 Hessian modes will be used to form the next step
  Hessian Eigenvalues:
    -0.020990    0.189493    0.875248
**WARNING** Hessian does not have the Desired Local Structure

 Minimum Search - Taking Simple RFO Step
 Searching for Lamda that Minimizes Along All modes
 Value Taken    Lamda =  -0.02533763
 Calculated Step too Large.  Step scaled by  0.125249
 Step Taken.  Stepsize is  0.300000

                             Maximum     Tolerance    Cnvgd?
         Gradient           0.016274      0.000300      NO
         Displacement       0.249813      0.001200      NO
         Energy change     -0.001519      0.000001      NO


 New Cartesian Coordinates Obtained by Inverse Iteration

  ***ERROR*** Exceeded allowed number of iterative cycles in GetCART
**WARNING** Problems with Internal Coordinates
  Switching to Cartesian Coordinates

 Translations and Rotations Projected Out of Hessian

  3 Hessian modes will be used to form the next step
  Hessian Eigenvalues:
    -0.012921    0.623367    0.865772
**WARNING** Hessian does not have the Desired Local Structure

 Minimum Search - Taking Simple RFO Step
 Searching for Lamda that Minimizes Along All modes
 Value Taken    Lamda =  -0.01786296
 Calculated Step too Large.  Step scaled by  0.162273
 Step Taken.  Stepsize is  0.300000

                             Maximum     Tolerance    Cnvgd?
         Gradient           0.022867      0.000300      NO
         Displacement       0.180070      0.001200      NO
         Energy change     -0.001519      0.000001      NO

 ----------------------------------------------------------------
             Standard Nuclear Orientation (Angstroms)
    I     Atom           X                Y                Z
 ----------------------------------------------------------------
    1      O       2.3097150227    -0.0998582278     0.0000000000
    2      O       0.9309081532     0.0149729814     0.0000000000
    3      Fe     -1.3317666305     0.1877682239     0.0000000000
 ----------------------------------------------------------------
 Molecular Point Group                 Cs    NOp =  2
 Largest Abelian Subgroup              Cs    NOp =  2
 Nuclear Repulsion Energy =   103.1148179005 hartrees
 There are       23 alpha and       16 beta electrons
 Applying Cartesian multipole field
    Component          Value
    ---------          -----
     (2,0,0)        1.00000E-11
     (0,2,0)        2.00000E-11
     (0,0,2)       -3.00000E-11
 Nucleus-field energy     =     0.0000000035 hartrees
 Requested basis set is 6-31G(d)
 There are 16 shells and 66 basis functions
 A cutoff of  1.0D-11 yielded    125 shell pairs
 There are      2243 function pairs (      2468 Cartesian)
 Smallest overlap matrix eigenvalue = 1.76E-03
 Guess MOs from SCF MO coefficient file

 -----------------------------------------------------------------------
  General SCF calculation program by
  Eric Jon Sundstrom, Paul Horn, Yuezhi Mao, Dmitri Zuev, Alec White,
  David Stuck, Shaama M.S., Shane Yost, Joonho Lee, David Small,
  Daniel Levine, Susi Lehtola, Hugh Burton, Evgeny Epifanovsky
 -----------------------------------------------------------------------
 Exchange:     0.2000 Hartree-Fock + 0.0800 Slater + 0.7200 B88
 Correlation:  0.1900 VWN1RPA + 0.8100 LYP
 Using SG-1 standard quadrature grid
 using 12 threads for integral computing
 -------------------------------------------------------
 OpenMP Integral computing Module                
 Release: version 1.0, May 2013, Q-Chem Inc. Pittsburgh 
 -------------------------------------------------------
 -------------------------------------------------------
 OpenMP BLAS3 based DFT computing Module                
 Release: version 1.0, May 2013, Q-Chem Inc. Pittsburgh 
 -------------------------------------------------------
 A unrestricted SCF calculation will be
 performed using DIIS
 SCF converges when DIIS error is below 1.0e-08
 ---------------------------------------
  Cycle       Energy         DIIS error
 ---------------------------------------
    1   -1412.0424012163      1.39e-03  
    2   -1412.0465010803      1.90e-03  
    3   -1412.0472634507      1.65e-03  
    4   -1412.0518009720      8.23e-04  
    5   -1412.0530518320      2.45e-04  
    6   -1412.0531479541      9.31e-05  
    7   -1412.0531676932      1.78e-05  
    8   -1412.0531703161      8.06e-06  
    9   -1412.0531722017      7.36e-06  
   10   -1412.0531753439      5.13e-06  
   11   -1412.0531814277      1.17e-05  
   12   -1412.0531851683      4.01e-06  
   13   -1412.0531853609      2.39e-06  
   14   -1412.0531853871      9.62e-07  
   15   -1412.0531853894      2.87e-07  
   16   -1412.0531853896      6.15e-08  
   17   -1412.0531853896      8.50e-09  Convergence criterion met
 ---------------------------------------
 SCF time:   CPU 19.74s  wall 2.00s 
<S^2> =         15.760669385
 SCF   energy in the final basis set =    -1412.0531853896
[...]
             Standard Nuclear Orientation (Angstroms)
    I     Atom           X                Y                Z
 ----------------------------------------------------------------
    1      O       3.9563922368     0.0281207605     0.0000000000
    2      O       4.1933538135    -1.3276857839     0.0000000000
    3      Fe     -6.2408895049     1.4024480009     0.0000000000
 ----------------------------------------------------------------
 Molecular Point Group                 Cs    NOp =  2
 Largest Abelian Subgroup              Cs    NOp =  2
 Nuclear Repulsion Energy =    45.5089726311 hartrees
 There are       23 alpha and       16 beta electrons
 Applying Cartesian multipole field
    Component          Value
    ---------          -----
     (2,0,0)        1.00000E-11
     (0,2,0)        2.00000E-11
     (0,0,2)       -3.00000E-11
 Nucleus-field energy     =     0.0000000503 hartrees
 Requested basis set is 6-31G(d)
 There are 16 shells and 66 basis functions
 A cutoff of  1.0D-11 yielded     80 shell pairs
 There are      1380 function pairs (      1518 Cartesian)
 Smallest overlap matrix eigenvalue = 1.76E-03
 Guess MOs from SCF MO coefficient file

 -----------------------------------------------------------------------
  General SCF calculation program by
  Eric Jon Sundstrom, Paul Horn, Yuezhi Mao, Dmitri Zuev, Alec White,
  David Stuck, Shaama M.S., Shane Yost, Joonho Lee, David Small,
  Daniel Levine, Susi Lehtola, Hugh Burton, Evgeny Epifanovsky
 -----------------------------------------------------------------------
 Exchange:     0.2000 Hartree-Fock + 0.0800 Slater + 0.7200 B88
 Correlation:  0.1900 VWN1RPA + 0.8100 LYP
 Using SG-1 standard quadrature grid
 using 12 threads for integral computing
 -------------------------------------------------------
 OpenMP Integral computing Module                
 Release: version 1.0, May 2013, Q-Chem Inc. Pittsburgh 
 -------------------------------------------------------
 -------------------------------------------------------
 OpenMP BLAS3 based DFT computing Module                
 Release: version 1.0, May 2013, Q-Chem Inc. Pittsburgh 
 -------------------------------------------------------
 A unrestricted SCF calculation will be
 performed using DIIS
 SCF converges when DIIS error is below 1.0e-08
 ---------------------------------------
  Cycle       Energy         DIIS error
 ---------------------------------------
    1   -1412.2730523511      3.22e-04  
    2   -1412.2736414673      5.57e-05  
    3   -1412.2736617408      2.73e-05  
    4   -1412.2736609181      4.38e-05  
    5   -1412.2736647616      5.21e-06  
    6   -1412.2736650700      1.13e-06  
    7   -1412.2736650807      2.80e-07  
    8   -1412.2736650809      4.71e-08  
    9   -1412.2736650809      1.02e-08  
   10   -1412.2736650809      4.49e-09  Convergence criterion met
 ---------------------------------------
 SCF time:   CPU 10.09s  wall 1.00s 
<S^2> =         15.758501784
 SCF   energy in the final basis set =    -1412.2736650809
 Total energy in the final basis set =    -1412.2736650809
 
 --------------------------------------------------------------
             Orbital Energies (a.u.) and Symmetries
 --------------------------------------------------------------
 
 Alpha MOs, Unrestricted
 -- Occupied --                  
-256.87  -30.86  -26.74  -26.70  -26.70  -19.92  -19.92   -4.33
  1 A'    2 A'    3 A'    4 A'    1 A"    5 A'    6 A'    7 A'                 
 -3.152  -3.081  -3.081  -1.781  -1.444  -1.129  -1.120  -1.120
  8 A'    9 A'    2 A"   10 A'   11 A'   12 A'   13 A'    3 A"                 
 -1.104  -1.090  -1.068  -1.063  -1.052  -0.941  -0.899
  4 A"   14 A'   15 A'   16 A'    5 A"    6 A"   17 A'                         
 -- Virtual --                   
 -0.756  -0.540  -0.514  -0.505  -0.504  -0.295  -0.199  -0.190
 18 A'   19 A'   20 A'   21 A'    7 A"   22 A'   23 A'   24 A'                 
 -0.188   0.203   0.259   0.277   0.285   0.304   0.407   0.428
  8 A"   25 A'    9 A"   26 A'   27 A'   28 A'   10 A"   29 A'                 
  0.429   0.680   0.685   0.686   0.705   0.728   0.747   0.891
 30 A'   31 A'   32 A'   11 A"   33 A'   12 A"   34 A'   13 A"                 
  0.919   1.033   1.033   1.290   1.290   1.430   1.432   1.432
 35 A'   36 A'   14 A"   15 A"   37 A'   38 A'   39 A'   16 A"                 
  1.437   1.451   1.468   1.468   1.507   1.814   1.844   2.377
 40 A'   17 A"   18 A"   41 A'   42 A'   19 A"   43 A'   44 A'                 
  2.587   2.934  19.499
 45 A'   46 A'   47 A'                                                         
 
 Beta MOs, Unrestricted
 -- Occupied --                  
-256.87  -30.78  -26.66  -26.64  -26.64  -19.88  -19.88   -4.13
  1 A'    2 A'    3 A'    4 A'    1 A"    5 A'    6 A'    7 A'                 
 -2.908  -2.894  -2.894  -1.672  -1.312  -1.016  -0.963  -0.936
  8 A'    9 A'    2 A"   10 A'   11 A'   12 A'    3 A"   13 A'                 
 -- Virtual --                   
 -0.819  -0.808  -0.796  -0.795  -0.755  -0.723  -0.685  -0.635
  4 A"   14 A'   15 A'    5 A"   16 A'   17 A'   18 A'    6 A"                 
 -0.489  -0.487  -0.486  -0.476  -0.289  -0.173  -0.170  -0.168
 19 A'   20 A'    7 A"   21 A'   22 A'   23 A'   24 A'    8 A"                 
  0.234   0.298   0.344   0.348   0.366   0.450   0.485   0.498
 25 A'   26 A'   27 A'   28 A'    9 A"   29 A'   30 A'   10 A"                 
  0.778   0.783   0.798   0.807   0.807   0.836   0.953   0.960
 11 A"   31 A'   32 A'   33 A'   12 A"   34 A'   35 A'   13 A"                 
  1.127   1.129   1.393   1.395   1.522   1.523   1.523   1.525
 14 A"   36 A'   15 A"   37 A'   16 A"   38 A'   17 A"   39 A'                 
  1.542   1.543   1.546   1.564   1.890   1.894   2.419   2.655
 40 A'   18 A"   41 A'   42 A'   43 A'   19 A"   44 A'   45 A'                 
  3.000  19.610
 46 A'   47 A'                                                                 
 --------------------------------------------------------------
 
          Ground-State Mulliken Net Atomic Charges

     Atom                 Charge (a.u.)    Spin (a.u.)
  --------------------------------------------------------
      1 O                     0.492310       1.493968
      2 O                     0.507690       1.506032
      3 Fe                    2.000000       4.000000
  --------------------------------------------------------
  Sum of atomic charges =     3.000000
  Sum of spin   charges =     7.000000

 -----------------------------------------------------------------
                    Cartesian Multipole Moments
 -----------------------------------------------------------------
    Charge (ESU x 10^10)
                14.4096
    Dipole Moment (Debye)
         X     -40.3404      Y      10.3028      Z      -0.0000
       Tot      41.6353
    Quadrupole Moments (Debye-Ang)
        XX     438.7273     XY     -97.4047     YY       8.1002
        XZ      -0.0000     YZ       0.0000     ZZ     -14.8507
    Octopole Moments (Debye-Ang^2)
       XXX   -1980.1357    XXY     462.7355    XYY     -92.1776
       YYY       9.0786    XXZ       0.0000    XYZ      -0.0000
       YYZ       0.0000    XZZ      13.8663    YZZ      -5.1571
       ZZZ      -0.0000
    Hexadecapole Moments (Debye-Ang^3)
      XXXX   13379.1382   XXXY   -3243.9366   XXYY     384.8379
      XYYY      54.9270   YYYY     -84.7473   XXXZ      -0.0001
      XXYZ       0.0000   XYYZ      -0.0000   YYYZ       0.0000
      XXZZ    -410.2353   XYZZ      83.9237   YYZZ     -23.4104
      XZZZ      -0.0000   YZZZ       0.0000   ZZZZ      -6.9260
 -----------------------------------------------------------------
 Calculating analytic gradient of the SCF energy
 Gradient of SCF Energy
            1           2           3
    1  -0.0028766  -0.0020377   0.0049144
    2   0.0021001  -0.0011426  -0.0009575
    3  -0.0000000  -0.0000000   0.0000000
 Max gradient component =       4.914E-03
 RMS gradient           =       2.191E-03
 Gradient time:  CPU 6.51 s  wall 0.59 s
 Geometry Optimization Parameters
   NAtoms,    NIC,     NZ,  NCons,   NDum,   NFix, NCnnct, MaxDiis
        3       9       0       0       0       0       0       0

 Cartesian Hessian Update
 Hessian Updated using BFGS Update


** GEOMETRY OPTIMIZATION IN CARTESIAN COORDINATES **
   Searching for a Minimum

   Optimization Cycle:  49

                       Coordinates (Angstroms)
     ATOM                X               Y               Z
      1  O         3.9563922368    0.0281207605    0.0000000000
      2  O         4.1933538135   -1.3276857839    0.0000000000
      3  Fe       -6.2408895049    1.4024480009    0.0000000000
   Point Group: cs    Number of degrees of freedom:     3


   Energy is  -1412.273665081


 Translations and Rotations Projected Out of Hessian

  3 Hessian modes will be used to form the next step
  Hessian Eigenvalues:
     0.000768    0.435737    1.174064

 Minimum Search - Taking Simple RFO Step
 Searching for Lamda that Minimizes Along All modes
 Value Taken    Lamda =  -0.00562833
 Calculated Step too Large.  Step scaled by  0.320207
 Step Taken.  Stepsize is  0.300000

                             Maximum     Tolerance    Cnvgd?
         Gradient           0.004914      0.000300      NO
         Displacement       0.235422      0.001200      NO
         Energy change     -0.001832      0.000001      NO

 ----------------------------------------------------------------
             Standard Nuclear Orientation (Angstroms)
    I     Atom           X                Y                Z
 ----------------------------------------------------------------
    1      O       3.9991296207     0.0106381427     0.0000000000
    2      O       4.2751962503    -1.3376434559     0.0000000000
    3      Fe     -6.3654693256     1.4298882908     0.0000000000
 ----------------------------------------------------------------
 Molecular Point Group                 Cs    NOp =  2
 Largest Abelian Subgroup              Cs    NOp =  2
 Nuclear Repulsion Energy =    45.1409554462 hartrees
 There are       23 alpha and       16 beta electrons
 Applying Cartesian multipole field
    Component          Value
    ---------          -----
     (2,0,0)        1.00000E-11
     (0,2,0)        2.00000E-11
     (0,0,2)       -3.00000E-11
 Nucleus-field energy     =     0.0000000522 hartrees
 Requested basis set is 6-31G(d)
 There are 16 shells and 66 basis functions
 A cutoff of  1.0D-11 yielded     80 shell pairs
 There are      1380 function pairs (      1518 Cartesian)
 Smallest overlap matrix eigenvalue = 1.76E-03
 Guess MOs from SCF MO coefficient file

 -----------------------------------------------------------------------
  General SCF calculation program by
  Eric Jon Sundstrom, Paul Horn, Yuezhi Mao, Dmitri Zuev, Alec White,
  David Stuck, Shaama M.S., Shane Yost, Joonho Lee, David Small,
  Daniel Levine, Susi Lehtola, Hugh Burton, Evgeny Epifanovsky
 -----------------------------------------------------------------------
 Exchange:     0.2000 Hartree-Fock + 0.0800 Slater + 0.7200 B88
 Correlation:  0.1900 VWN1RPA + 0.8100 LYP
 Using SG-1 standard quadrature grid
 using 12 threads for integral computing
 -------------------------------------------------------
 OpenMP Integral computing Module                
 Release: version 1.0, May 2013, Q-Chem Inc. Pittsburgh 
 -------------------------------------------------------
 -------------------------------------------------------
 OpenMP BLAS3 based DFT computing Module                
 Release: version 1.0, May 2013, Q-Chem Inc. Pittsburgh 
 -------------------------------------------------------
 A unrestricted SCF calculation will be
 performed using DIIS
 SCF converges when DIIS error is below 1.0e-08
 ---------------------------------------
  Cycle       Energy         DIIS error
 ---------------------------------------
    1   -1412.2748268988      3.20e-04  
    2   -1412.2754105318      5.53e-05  
    3   -1412.2754308152      2.46e-05  
    4   -1412.2754299660      4.27e-05  
    5   -1412.2754335717      5.27e-06  
    6   -1412.2754338774      1.12e-06  
    7   -1412.2754338878      2.76e-07  
    8   -1412.2754338880      4.68e-08  
    9   -1412.2754338880      1.02e-08  
   10   -1412.2754338880      5.45e-09  Convergence criterion met
 ---------------------------------------
 SCF time:   CPU 9.76s  wall 1.00s 
<S^2> =         15.758501909
 SCF   energy in the final basis set =    -1412.2754338880
 Total energy in the final basis set =    -1412.2754338880
 
 --------------------------------------------------------------
             Orbital Energies (a.u.) and Symmetries
 --------------------------------------------------------------
 
 Alpha MOs, Unrestricted
 -- Occupied --                  
-256.87  -30.86  -26.74  -26.70  -26.70  -19.92  -19.92   -4.33
  1 A'    2 A'    3 A'    4 A'    1 A"    5 A'    6 A'    7 A'                 
 -3.151  -3.080  -3.080  -1.779  -1.442  -1.128  -1.119  -1.119
  8 A'    9 A'    2 A"   10 A'   11 A'   12 A'   13 A'    3 A"                 
 -1.102  -1.089  -1.066  -1.061  -1.051  -0.939  -0.897
  4 A"   14 A'   15 A'   16 A'    5 A"    6 A"   17 A'                         
 -- Virtual --                   
 -0.755  -0.539  -0.513  -0.504  -0.503  -0.294  -0.198  -0.189
 18 A'   19 A'   20 A'   21 A'    7 A"   22 A'   23 A'   24 A'                 
 -0.187   0.205   0.261   0.279   0.287   0.304   0.409   0.430
  8 A"   25 A'    9 A"   26 A'   27 A'   28 A'   10 A"   29 A'                 
  0.431   0.681   0.686   0.686   0.706   0.729   0.749   0.893
 30 A'   31 A'   32 A'   11 A"   33 A'   12 A"   34 A'   13 A"                 
  0.921   1.035   1.035   1.292   1.292   1.430   1.433   1.433
 35 A'   36 A'   14 A"   15 A"   37 A'   38 A'   39 A'   16 A"                 
  1.438   1.452   1.468   1.469   1.509   1.816   1.846   2.379
 40 A'   17 A"   18 A"   41 A'   42 A'   19 A"   43 A'   44 A'                 
  2.589   2.936  19.500
 45 A'   46 A'   47 A'                                                         
 
 Beta MOs, Unrestricted
 -- Occupied --                  
-256.86  -30.78  -26.66  -26.64  -26.64  -19.88  -19.88   -4.13
  1 A'    2 A'    3 A'    4 A'    1 A"    5 A'    6 A'    7 A'                 
 -2.907  -2.893  -2.893  -1.671  -1.310  -1.014  -0.962  -0.934
  8 A'    9 A'    2 A"   10 A'   11 A'   12 A'    3 A"   13 A'                 
 -- Virtual --                   
 -0.818  -0.807  -0.795  -0.795  -0.754  -0.722  -0.683  -0.634
  4 A"   14 A'   15 A'    5 A"   16 A'   17 A'   18 A'    6 A"                 
 -0.488  -0.486  -0.485  -0.474  -0.288  -0.172  -0.169  -0.167
 19 A'   20 A'    7 A"   21 A'   22 A'   23 A'   24 A'    8 A"                 
  0.236   0.299   0.345   0.350   0.368   0.452   0.487   0.500
 25 A'   26 A'   27 A'   28 A'    9 A"   29 A'   30 A'   10 A"                 
  0.779   0.784   0.798   0.808   0.808   0.837   0.955   0.962
 11 A"   31 A'   32 A'   33 A'   12 A"   34 A'   35 A'   13 A"                 
  1.129   1.131   1.394   1.397   1.523   1.524   1.524   1.526
 14 A"   36 A'   15 A"   37 A'   16 A"   38 A'   17 A"   39 A'                 
  1.543   1.544   1.547   1.566   1.892   1.896   2.421   2.656
 40 A'   18 A"   41 A'   42 A'   43 A'   19 A"   44 A'   45 A'                 
  3.002  19.611
 46 A'   47 A'                                                                 
 --------------------------------------------------------------
 
          Ground-State Mulliken Net Atomic Charges

     Atom                 Charge (a.u.)    Spin (a.u.)
  --------------------------------------------------------
      1 O                     0.492027       1.493756
      2 O                     0.507973       1.506244
      3 Fe                    2.000000       4.000000
  --------------------------------------------------------
  Sum of atomic charges =     3.000000
  Sum of spin   charges =     7.000000

 -----------------------------------------------------------------
                    Cartesian Multipole Moments
 -----------------------------------------------------------------
    Charge (ESU x 10^10)
                14.4096
    Dipole Moment (Debye)
         X     -41.2376      Y      10.4994      Z      -0.0000
       Tot      42.5532
    Quadrupole Moments (Debye-Ang)
        XX     456.3012     XY    -101.3045     YY       8.9080
        XZ      -0.0000     YZ       0.0000     ZZ     -14.8507
    Octopole Moments (Debye-Ang^2)
       XXX   -2106.1691    XXY     491.0475    XYY     -98.3451
       YYY      10.3361    XXZ       0.0000    XYZ      -0.0000
       YYZ       0.0000    XZZ      14.2891    YZZ      -5.2504
       ZZZ      -0.0000
    Hexadecapole Moments (Debye-Ang^3)
      XXXX   14570.2718   XXXY   -3520.4401   XXYY     433.3401
      XYYY      50.2728   YYYY     -85.3298   XXXZ      -0.0001
      XXYZ       0.0000   XYYZ      -0.0000   YYYZ       0.0000
      XXZZ    -425.5044   XYZZ      87.2828   YYZZ     -24.0684
      XZZZ      -0.0000   YZZZ       0.0000   ZZZZ      -6.9259
 -----------------------------------------------------------------
 Calculating analytic gradient of the SCF energy
 Gradient of SCF Energy
            1           2           3
    1  -0.0028256  -0.0019181   0.0047437
    2   0.0020316  -0.0011062  -0.0009254
    3  -0.0000000  -0.0000000   0.0000000
 Max gradient component =       4.744E-03
 RMS gradient           =       2.118E-03
 Gradient time:  CPU 6.45 s  wall 0.59 s
 Geometry Optimization Parameters
   NAtoms,    NIC,     NZ,  NCons,   NDum,   NFix, NCnnct, MaxDiis
        3       9       0       0       0       0       0       0

 Cartesian Hessian Update
 Hessian Updated using BFGS Update


** GEOMETRY OPTIMIZATION IN CARTESIAN COORDINATES **
   Searching for a Minimum

   Optimization Cycle:  50

                       Coordinates (Angstroms)
     ATOM                X               Y               Z
      1  O         3.9991296207    0.0106381427    0.0000000000
      2  O         4.2751962503   -1.3376434559    0.0000000000
      3  Fe       -6.3654693256    1.4298882908    0.0000000000
   Point Group: cs    Number of degrees of freedom:     3


   Energy is  -1412.275433888


 Translations and Rotations Projected Out of Hessian

  3 Hessian modes will be used to form the next step
  Hessian Eigenvalues:
     0.000733    0.429589    1.170766

 Minimum Search - Taking Simple RFO Step
 Searching for Lamda that Minimizes Along All modes
 Value Taken    Lamda =  -0.00543747
 Calculated Step too Large.  Step scaled by  0.319988
 Step Taken.  Stepsize is  0.300000

                             Maximum     Tolerance    Cnvgd?
         Gradient           0.004744      0.000300      NO
         Displacement       0.235461      0.001200      NO
         Energy change     -0.001769      0.000001      NO

 ----------------------------------------------------------------
             Standard Nuclear Orientation (Angstroms)
    I     Atom           X                Y                Z
 ----------------------------------------------------------------
    1      O       4.0420775696    -0.0073617476     0.0000000000
    2      O       4.3568490594    -1.3470760407     0.0000000000
    3      Fe     -6.4900700836     1.4573207659     0.0000000000
 ----------------------------------------------------------------
 Molecular Point Group                 Cs    NOp =  2
 Largest Abelian Subgroup              Cs    NOp =  2
 Nuclear Repulsion Energy =    44.7849569890 hartrees
 There are       23 alpha and       16 beta electrons

                       Distance Matrix (Angstroms)
             O (  1)   O (  2)
   O (  2)  1.376196
   Fe(  3) 10.633505 11.203584
 


 *******************************************
 **  MAXIMUM OPTIMIZATION CYCLES REACHED  **
 *******************************************

 Q-Chem fatal error occurred in module 0, line  456:

 Maximum optimization cycles reached

