Jobname.Temp
FOPT      U                             6-31G(d)            
Number of atoms                            I                3
Charge                                     I                3
Multiplicity                               I                8
Number of electrons                        I               39
Number of alpha electrons                  I               23
Number of beta electrons                   I               16
Atomic numbers                             I   N=           3
           8           8          26
Current cartesian coordinates              R   N=           9
  3.38752549E+00 -6.14940163E-01 -1.48048063E-15  1.82289774E+00  8.95769991E-01
  2.70760975E-15 -1.60320715E+00 -8.64091780E-02 -3.77578193E-16
Nuclear charges                            R   N=           3
  8.00000000E+00  8.00000000E+00  2.60000000E+01
Number of basis functions                  I               66
Number of contracted shells                I               16
Number of primitive shells                 I               49
Highest angular momentum                   I                3
Largest degree of contraction              I                6
Shell types                                I   N=          16
           0          -1          -1           2           0          -1
          -1           2           0          -1          -1          -1
          -1           2           2          -3
Number of primitives per shell             I   N=          16
           6           3           1           1           6           3
           1           1           6           6           6           3
           1           3           1           1
Shell to atom map                          I   N=          16
           1           1           1           1           2           2
           2           2           3           3           3           3
           3           3           3           3
Primitive exponents                        R   N=          49
  5.48467170E+03  8.25234950E+02  1.88046960E+02  5.29645000E+01  1.68975700E+01
  5.79963530E+00  1.55396160E+01  3.59993360E+00  1.01376180E+00  2.70005800E-01
  8.00000000E-01  5.48467170E+03  8.25234950E+02  1.88046960E+02  5.29645000E+01
  1.68975700E+01  5.79963530E+00  1.55396160E+01  3.59993360E+00  1.01376180E+00
  2.70005800E-01  8.00000000E-01  6.11326200E+04  9.17934200E+03  2.09085700E+03
  5.89247900E+02  1.88754300E+02  6.44462900E+01  1.25998000E+03  2.99876100E+02
  9.68491700E+01  3.63102000E+01  1.47299600E+01  6.06607500E+00  5.04348500E+01
  1.68392900E+01  7.19208600E+00  3.05342000E+00  1.27364300E+00  5.04091000E-01
  1.95031600E+00  7.36721000E-01  1.14177000E-01  4.11480000E-02  2.31499400E+01
  6.12236800E+00  1.84660100E+00  5.04361000E-01  8.00000000E-01
Contraction coefficients                   R   N=          49
  1.83109981E-03  1.39500985E-02  6.84450927E-02  2.32714275E-01  4.70192950E-01
  3.58520862E-01 -1.10777504E-01 -1.48026305E-01  1.13076704E+00  1.00000000E+00
  1.00000000E+00  1.83109981E-03  1.39500985E-02  6.84450927E-02  2.32714275E-01
  4.70192950E-01  3.58520862E-01 -1.10777504E-01 -1.48026305E-01  1.13076704E+00
  1.00000000E+00  1.00000000E+00  1.76611098E-03  1.35303798E-02  6.67312791E-02
  2.31482297E-01  4.79705794E-01  3.50197595E-01  2.43801403E-03  3.22404804E-02
  1.26572401E-01 -3.13990203E-02 -6.20759307E-01 -4.50291405E-01 -3.87325598E-03
  7.19659797E-02  2.55659099E-01 -2.88283699E-01 -7.34282197E-01 -2.04935299E-01
  5.69486903E-02  2.88291502E-01 -1.13815901E+00  1.00000000E+00  8.87693548E-02
  3.89631921E-01  7.01481638E-01  1.00000000E+00  1.00000000E+00
P(S=P) Contraction coefficients            R   N=          49
  0.00000000E+00  0.00000000E+00  0.00000000E+00  0.00000000E+00  0.00000000E+00
  0.00000000E+00  7.08742995E-02  3.39752798E-01  7.27158595E-01  1.00000000E+00
  0.00000000E+00  0.00000000E+00  0.00000000E+00  0.00000000E+00  0.00000000E+00
  0.00000000E+00  0.00000000E+00  7.08742995E-02  3.39752798E-01  7.27158595E-01
  1.00000000E+00  0.00000000E+00  0.00000000E+00  0.00000000E+00  0.00000000E+00
  0.00000000E+00  0.00000000E+00  0.00000000E+00  4.02801867E-03  3.14464674E-02
  1.36831689E-01  3.48723571E-01  4.61793062E-01  2.04305783E-01 -7.01712788E-03
 -2.87765995E-02  6.18138289E-02  3.95494593E-01  4.98905892E-01  1.79125097E-01
 -4.59379616E-01  2.85213910E-01  9.07648532E-01  1.00000000E+00  0.00000000E+00
  0.00000000E+00  0.00000000E+00  0.00000000E+00  0.00000000E+00
Coordinates of each shell                  R   N=          48
  3.38752549E+00 -6.14940163E-01 -1.48048063E-15  3.38752549E+00 -6.14940163E-01
 -1.48048063E-15  3.38752549E+00 -6.14940163E-01 -1.48048063E-15  3.38752549E+00
 -6.14940163E-01 -1.48048063E-15  1.82289774E+00  8.95769991E-01  2.70760975E-15
  1.82289774E+00  8.95769991E-01  2.70760975E-15  1.82289774E+00  8.95769991E-01
  2.70760975E-15  1.82289774E+00  8.95769991E-01  2.70760975E-15 -1.60320715E+00
 -8.64091780E-02 -3.77578193E-16 -1.60320715E+00 -8.64091780E-02 -3.77578193E-16
 -1.60320715E+00 -8.64091780E-02 -3.77578193E-16 -1.60320715E+00 -8.64091780E-02
 -3.77578193E-16 -1.60320715E+00 -8.64091780E-02 -3.77578193E-16 -1.60320715E+00
 -8.64091780E-02 -3.77578193E-16 -1.60320715E+00 -8.64091780E-02 -3.77578193E-16
 -1.60320715E+00 -8.64091780E-02 -3.77578193E-16
Overlap Matrix                             R   N=        2211
  1.00000000E+00  2.33689906E-01  1.00000000E+00 -7.67743642E-17  1.38408286E-16
  1.00000000E+00 -2.81087659E-18  9.33964942E-17  0.00000000E+00  1.00000000E+00
 -8.90809279E-32  4.49508298E-31 -1.74380676E-46  7.41991810E-47  1.00000000E+00
  1.67279760E-01  7.63640773E-01 -2.08233183E-16 -1.19628448E-16  1.45362426E-32
  1.00000000E+00  6.49973350E-17  2.48464929E-17  5.01520641E-01  0.00000000E+00
  0.00000000E+00  0.00000000E+00  1.00000000E+00  0.00000000E+00 -9.60057074E-17
  0.00000000E+00  5.01520641E-01  0.00000000E+00  0.00000000E+00  0.00000000E+00
  1.00000000E+00 -1.97289388E-32 -2.99489337E-33  0.00000000E+00  0.00000000E+00
  5.01520641E-01  0.00000000E+00  0.00000000E+00  0.00000000E+00  1.00000000E+00
  3.35315380E-02  5.47065748E-01  2.44320078E-16 -2.03600065E-17 -3.61666368E-32
  6.99014733E-01 -9.67819454E-16  0.00000000E+00  1.43266059E-31  1.00000000E+00
  3.35315380E-02  5.47065748E-01  8.14400261E-17 -6.10800196E-17 -3.61666368E-32
  6.99014733E-01 -3.22606485E-16  0.00000000E+00  1.43266059E-31  3.33333333E-01
  1.00000000E+00  3.35315380E-02  5.47065748E-01  8.14400261E-17 -2.03600065E-17
 -1.08499911E-31  6.99014733E-01 -3.22606485E-16  0.00000000E+00  4.29798177E-31
  3.33333333E-01  3.33333333E-01  1.00000000E+00 -2.42775579E-32  1.58228057E-32
 -3.52645657E-17  1.41058263E-16  2.71784899E-62  0.00000000E+00  0.00000000E+00
 -5.58770823E-16  0.00000000E+00  0.00000000E+00  0.00000000E+00  0.00000000E+00
  1.00000000E+00 -4.30649414E-47  2.81069492E-47 -6.26424526E-32  2.71784899E-62
  1.41058263E-16 -2.26920508E-46  2.48144093E-31  0.00000000E+00 -5.58770823E-16
  0.00000000E+00  0.00000000E+00  0.00000000E+00  0.00000000E+00  1.00000000E+00
  1.07662353E-47 -7.02673729E-48  2.71784899E-62 -6.26424526E-32 -3.52645657E-17
  0.00000000E+00  0.00000000E+00  2.48144093E-31  0.00000000E+00  0.00000000E+00
  0.00000000E+00  0.00000000E+00  0.00000000E+00  0.00000000E+00  1.00000000E+00
  1.42212893E-07  6.29430912E-03 -1.13086168E-02  1.09189180E-02  3.02701451E-17
  4.85407910E-02 -7.64478250E-02  7.38134071E-02  2.04630398E-16  4.21680230E-02
  3.93891076E-02  1.14062478E-03 -6.86127336E-02 -1.90212748E-16  1.83657952E-16
  1.00000000E+00  6.29430912E-03  1.09361323E-01 -1.21323616E-01  1.17142763E-01
  3.24750897E-16  2.82919165E-01 -3.58219620E-01  3.45875250E-01  9.58858193E-16
  2.41196442E-01  2.29447664E-01  6.77396295E-02 -2.90082886E-01 -8.04186918E-16
  7.76474365E-16  2.33689906E-01  1.00000000E+00  1.13086168E-02  1.21323616E-01
 -9.30949721E-02  1.43566972E-01  3.98005834E-16  1.45493219E-01 -1.16049683E-02
  1.83993740E-01  5.10079588E-16  9.19603940E-02  2.55672734E-01  6.38088096E-02
 -1.95629132E-01 -5.42335989E-16  9.21274068E-16  1.31225565E-17 -5.40731116E-16
  1.00000000E+00 -1.09189180E-02 -1.17142763E-01  1.43566972E-01 -8.30236665E-02
 -3.84290418E-16 -1.40479474E-01  1.83993740E-01  1.30229829E-03 -4.92502072E-16
 -2.60321529E-01 -7.53320433E-02 -6.16099365E-02  1.78466857E-01  9.21274068E-16
 -4.77708084E-16 -6.50428171E-17 -8.65380631E-17  9.46861777E-32  1.00000000E+00
 -3.02701451E-17 -3.24750897E-16  3.98005834E-16 -3.84290418E-16  5.55959392E-02
 -3.89446467E-16  5.10079588E-16 -4.92502072E-16  1.78955552E-01 -7.21680522E-16
 -6.84367583E-16  3.04727990E-16  9.21274068E-16 -1.53851207E-01  1.48549443E-01
 -2.82657140E-31  6.15148206E-32  0.00000000E+00  0.00000000E+00  1.00000000E+00
  4.85407910E-02  2.82919165E-01 -1.45493219E-01  1.40479474E-01  3.89446467E-16
  5.28028554E-01 -4.29294164E-01  4.14500542E-01  1.14910576E-15  3.58750723E-01
  3.52672395E-01  2.69011399E-01 -1.50076793E-01 -4.16052788E-16  4.01715468E-16
  1.67279760E-01  7.63640773E-01 -1.63663542E-17 -8.18317711E-18  3.95933138E-31
  1.00000000E+00  7.64478250E-02  3.58219620E-01 -1.16049683E-02  1.83993740E-01
  5.10079588E-16  4.29294164E-01  1.79006747E-01  3.36994397E-01  9.34238105E-16
  2.15380916E-01  4.28748778E-01  3.27040931E-01  2.14285023E-03  5.94055081E-18
  4.88371130E-16 -2.21392313E-20  3.37195016E-18  5.01520641E-01  1.88833359E-33
  6.70870858E-48  0.00000000E+00  1.00000000E+00 -7.38134071E-02 -3.45875250E-01
  1.83993740E-01  1.30229829E-03 -4.92502072E-16 -4.14500542E-01  3.36994397E-01
  2.02647098E-01 -9.02043944E-16 -4.21108813E-01 -2.00823953E-01 -3.15770990E-01
 -1.50183338E-02  4.88371130E-16  4.02000661E-17  1.62600522E-17  1.68597508E-18
  1.88833359E-33  5.01520641E-01  3.35435429E-48  0.00000000E+00  0.00000000E+00
  1.00000000E+00 -2.04630398E-16 -9.58858193E-16  5.10079588E-16 -4.92502072E-16
  1.78955552E-01 -1.14910576E-15  9.34238105E-16 -9.02043944E-16  5.28028554E-01
 -1.16742564E-15 -1.14764590E-15 -2.84492689E-16  4.88371130E-16 -1.91181491E-01
  1.84593312E-01 -5.84076423E-34  3.47070577E-31  6.70870858E-48  3.35435429E-48
  5.01520641E-01  0.00000000E+00  0.00000000E+00  0.00000000E+00  1.00000000E+00
  4.21680230E-02  2.41196442E-01 -9.19603940E-02  2.60321529E-01  7.21680522E-16
  3.58750723E-01 -2.15380916E-01  4.21108813E-01  1.16742564E-15  1.46662306E-01
  4.20092897E-01  1.48663554E-01 -1.57743664E-01 -4.37307394E-16  1.30332378E-15
  3.35315380E-02  5.47065748E-01  1.28126240E-16  2.03600065E-17  0.00000000E+00
  6.99014733E-01 -4.83909727E-16 -8.06516212E-17  0.00000000E+00  1.00000000E+00
  3.93891076E-02  2.29447664E-01 -2.55672734E-01  7.53320433E-02  6.84367583E-16
  3.52672395E-01 -4.28748778E-01  2.00823953E-01  1.14764590E-15  4.20092897E-01
  1.34768845E-01  1.41997728E-01 -1.35911501E-01 -1.28931515E-15  3.63798768E-16
  3.35315380E-02  5.47065748E-01  4.27087465E-17  6.10800196E-17  0.00000000E+00
  6.99014733E-01 -1.61303242E-16 -2.41954864E-16  0.00000000E+00  3.33333333E-01
  1.00000000E+00  1.14062478E-03  6.77396295E-02 -6.38088096E-02  6.16099365E-02
 -3.04727990E-16  2.69011399E-01 -3.27040931E-01  3.15770990E-01  2.84492689E-16
  1.48663554E-01  1.41997728E-01  1.50751563E-01 -1.64582389E-01  4.56266160E-16
 -4.40543074E-16  3.35315380E-02  5.47065748E-01  4.27087465E-17  2.03600065E-17
  0.00000000E+00  6.99014733E-01 -1.61303242E-16 -8.06516212E-17  0.00000000E+00
  3.33333333E-01  3.33333333E-01  1.00000000E+00 -6.86127336E-02 -2.90082886E-01
  1.95629132E-01 -1.78466857E-01 -9.21274068E-16 -1.50076793E-01 -2.14285023E-03
  1.50183338E-02 -4.88371130E-16 -1.57743664E-01 -1.35911501E-01 -1.64582389E-01
  1.19317249E-01  7.31337034E-16 -6.52607008E-16  1.21387790E-32 -7.91140286E-33
  3.52645657E-17  7.39737189E-17  0.00000000E+00  6.38724448E-32 -1.39692706E-16
 -2.79385411E-16  0.00000000E+00  0.00000000E+00  0.00000000E+00  0.00000000E+00
  1.00000000E+00 -1.90212748E-16 -8.04186918E-16  5.42335989E-16 -9.21274068E-16
  1.53851207E-01 -4.16052788E-16 -5.94055081E-18 -4.88371130E-16  1.91181491E-01
 -4.37307394E-16 -1.28931515E-15  4.56266160E-16  7.31337034E-16 -1.44487536E-01
  2.85065060E-01  4.31236800E-47  0.00000000E+00  0.00000000E+00  0.00000000E+00
  7.39737189E-17  0.00000000E+00  0.00000000E+00  0.00000000E+00 -2.79385411E-16
  0.00000000E+00  0.00000000E+00  0.00000000E+00  0.00000000E+00  1.00000000E+00
  1.83657952E-16  7.76474365E-16 -9.21274068E-16  4.77708084E-16 -1.48549443E-01
  4.01715468E-16 -4.88371130E-16 -4.02000661E-17 -1.84593312E-01  1.30332378E-15
  3.63798768E-16 -4.40543074E-16 -6.52607008E-16  2.85065060E-01 -1.24490058E-01
  2.20118277E-47  0.00000000E+00  0.00000000E+00  0.00000000E+00  3.52645657E-17
  0.00000000E+00  0.00000000E+00  0.00000000E+00 -1.39692706E-16  0.00000000E+00
  0.00000000E+00  0.00000000E+00  0.00000000E+00  0.00000000E+00  1.00000000E+00
  3.22507872E-60  9.29146324E-13 -5.93566406E-12  6.28601569E-13  1.31172291E-27
  3.23163540E-05 -1.67121050E-04  1.76985344E-05  3.69320953E-20  6.09807309E-09
  6.97644087E-11  1.38803630E-12 -1.11830569E-09 -2.33360410E-24  2.47134471E-25
  2.30317957E-31  2.52366525E-07 -1.10716215E-06 -3.17395887E-07 -9.96993213E-22
  9.31176795E-04 -3.30582971E-03 -9.47699263E-04 -2.97688083E-18  5.72552164E-05
  4.73023328E-06  2.70729053E-08  2.84158303E-05  8.92588438E-20  2.55882934E-20
  1.00000000E+00 -5.97071429E-34 -1.04291946E-10  5.82636948E-10 -6.17027002E-11
 -1.28756989E-25 -2.76196807E-04  1.38448552E-03 -1.46620456E-04 -3.05957574E-19
 -1.92460198E-07 -2.78423190E-09 -6.32823413E-10  3.51866044E-08  7.34250077E-23
 -7.77589072E-24 -7.09491963E-18 -6.21586411E-06  2.41101977E-05  6.91179482E-06
  2.17110958E-20 -7.18373669E-03  2.47319518E-02  7.09003627E-03  2.22709819E-17
 -7.26020231E-04 -6.39218256E-05 -4.63660939E-06 -3.58192897E-04 -1.12514340E-18
 -3.22550665E-19 -2.81029566E-01  1.00000000E+00  3.25513065E-33  1.71169569E-10
 -9.37034057E-10  1.01554066E-10  2.11916103E-25  1.51034193E-04 -7.01403557E-04
  8.04481833E-05  1.67873785E-19  2.51627399E-07  3.81531923E-09  8.36412548E-10
 -4.73613351E-08 -9.88304059E-23  1.07667386E-23  2.65537600E-17  7.39336338E-06
 -2.75197949E-05 -8.28435298E-06 -2.60225290E-20  2.72750565E-03 -7.89170308E-03
 -2.70156151E-03 -8.48605354E-18  6.47589523E-04  6.41520690E-05  4.27721327E-06
  3.40591551E-04  1.06985465E-18  3.25758693E-19  3.05830177E-16  2.64327009E-16
  1.00000000E+00 -3.44726422E-34 -1.81272826E-11  1.01554066E-10  1.11505270E-11
 -2.24424417E-26 -1.59948962E-05  8.04481833E-05  4.97207481E-05 -1.77782509E-20
 -2.82173488E-08  1.16533032E-09 -8.85781667E-11 -7.67412058E-09  1.07667386E-23
  1.69590456E-24  7.61230344E-18  2.11949364E-06 -8.28435298E-06 -9.96663630E-07
 -7.46001270E-21  7.81908120E-04 -2.70156151E-03  7.57598885E-04 -2.43274076E-18
  2.10085758E-04 -6.04712234E-06  1.22617080E-06  2.98810415E-05  3.25758693E-19
  2.69077078E-20  3.17737814E-17 -3.01912598E-17  7.03247202E-32  1.00000000E+00
 -7.19351601E-49 -3.78267777E-26  2.11916103E-25 -2.24424417E-26  2.19053548E-11
 -3.33770593E-20  1.67873785E-19 -1.77782509E-20  5.82404106E-05 -5.88820401E-23
 -8.43147725E-25  3.09004072E-24  1.07667386E-23 -1.28337383E-08  1.35912477E-09
  2.39115098E-32  6.65768164E-21 -2.60225290E-20 -7.46001270E-21  1.37825459E-06
  2.45610331E-18 -8.48605354E-18 -2.43274076E-18  1.53206947E-03  6.59914269E-19
  5.77685730E-20 -7.29119827E-20  3.25758693E-19 -7.38252508E-05 -2.11638656E-05
  8.83659238E-32 -6.75911495E-32  4.42830876E-46  2.64047448E-47  1.00000000E+00
 -3.46487160E-07 -4.42774170E-05  9.76583895E-05 -1.03422661E-05 -2.15815359E-20
 -4.18537713E-03  1.58991637E-02 -1.68376094E-03 -3.51355756E-18 -6.72692361E-04
 -6.60320024E-05 -5.91509290E-05  1.12540974E-04  2.34842834E-19 -2.48704396E-20
 -1.26752083E-04 -3.52012530E-03  6.16885681E-03  1.76845802E-03  5.55502045E-18
 -5.16797754E-02  1.39606607E-01  4.00217466E-02  1.25714955E-16 -2.78316998E-02
 -5.38206521E-03 -3.37189357E-03 -1.21451730E-02 -3.81500061E-17 -1.09366591E-17
 -1.39347434E-02  3.71218907E-01 -9.22783486E-17 -2.37020559E-17 -1.85416283E-31
  1.00000000E+00  2.00762344E-06  1.82427602E-04 -3.80376418E-04  4.28074778E-05
  8.93277268E-20  7.75176182E-03 -2.59735437E-02  3.06722257E-03  6.40047100E-18
  2.22280403E-03  2.49320203E-04  2.23651400E-04 -3.93259304E-04 -8.20626711E-19
  9.27754112E-20  5.06556914E-04  9.63677282E-03 -1.50950120E-02 -4.87917787E-03
 -1.53263083E-17  6.36235112E-02 -1.34762332E-01 -4.88782145E-02 -1.53534592E-16
  5.37882690E-02  1.32845744E-02  8.45771892E-03  2.58357131E-02  8.11542672E-17
  2.62612765E-17 -9.63931022E-18 -4.66492728E-16  3.40083818E-01  1.91469459E-32
  1.32778651E-47 -4.56340461E-16  1.00000000E+00 -2.12612310E-07 -1.93195363E-05
  4.28074778E-05  1.93061567E-05 -9.46002818E-21 -8.20930834E-04  3.06722257E-03
  2.66433631E-03 -6.77825779E-19 -2.66066740E-04  4.26264239E-06 -2.36852389E-05
 -2.06316032E-04  9.27754112E-20  4.55937976E-20  1.45217285E-04  2.76262340E-03
 -4.87917787E-03  5.26132493E-04 -4.39367190E-18  1.82392803E-02 -4.88782145E-02
  2.17258454E-02 -4.40145539E-17  1.92619871E-02 -3.38688900E-05  2.42461793E-03
 -3.24673548E-03  2.62612765E-17 -2.92366682E-18 -1.11248854E-18 -2.13276006E-17
  1.91469459E-32  3.40083818E-01  2.34749028E-48 -5.67006620E-18  3.20690880E-33
  1.00000000E+00 -4.43664877E-22 -4.03146914E-20  8.93277268E-20 -9.46002818E-21
  2.38395749E-05 -1.71306251E-18  6.40047100E-18 -6.77825779E-19  2.98916280E-03
 -5.55209937E-19 -5.50972930E-20  1.45675426E-20  9.27754112E-20 -2.50775703E-04
  2.65577699E-05  4.56151618E-19  8.67785907E-18 -1.53263083E-17 -4.39367190E-18
  1.92487160E-03  5.72926097E-17 -1.53534592E-16 -4.40145539E-17  3.57380154E-02
  6.05051015E-17  1.19626837E-17 -4.45294372E-18  2.62612765E-17 -1.16070945E-02
 -3.32746567E-03  4.30819240E-33 -6.73073957E-32  1.32778651E-47  2.34749028E-48
  3.40083818E-01 -6.70365382E-32  3.04042222E-47  2.95305041E-49  1.00000000E+00
 -6.01543889E-03 -4.28599376E-02  3.26409165E-02 -3.45675414E-03 -7.21331894E-18
 -1.30062092E-01  1.96511484E-01 -2.08110543E-02 -4.34270896E-17 -8.51800540E-02
 -5.03070306E-02 -4.99114817E-02  6.46926073E-03  1.34996124E-17 -1.42964248E-18
 -2.45203006E-02 -1.51864667E-01  7.87533383E-02  2.25766259E-02  7.09169329E-17
 -3.37871832E-01  3.24227441E-01  9.29479538E-02  2.91964965E-16 -2.19237539E-01
 -1.76293003E-01 -1.72447690E-01 -2.32328418E-02 -7.29782159E-17 -2.09210418E-17
  7.21218849E-03 -2.80208823E-02 -5.26942503E-17 -2.86974411E-18 -5.11376033E-33
  2.02817033E-01 -4.08122613E-17  4.45385553E-18  3.71257869E-33  1.00000000E+00
  1.59580940E-02  1.03132205E-01 -6.41513490E-02  8.42985377E-03  1.75908443E-17
  2.51860163E-01 -2.96443293E-01  4.16793293E-02  8.69735835E-17  1.68229882E-01
  1.18498454E-01  1.17552936E-01 -1.23798426E-02 -2.58334117E-17  3.41741053E-18
  4.47868857E-02  2.57300666E-01 -8.75476942E-02 -4.14343334E-02 -1.30152125E-16
  4.82338643E-01 -2.57915992E-01 -1.51608398E-01 -4.76227165E-16  3.16687676E-01
  2.94272469E-01  2.84546491E-01  3.73611192E-02  1.17357482E-16  5.29157332E-17
  1.27842131E-17 -1.99930641E-16 -1.05770386E-01 -1.38358469E-33 -1.93299382E-47
 -2.10898821E-16  1.58376987E-02 -4.72675140E-34 -1.18063766E-47  5.50805731E-17
  1.00000000E+00 -1.69000180E-03 -1.09219567E-02  8.42985377E-03  1.45560598E-02
 -1.86291411E-18 -2.66726169E-02  4.16793293E-02  9.27060453E-02 -9.21071856E-18
 -2.13773444E-02 -8.98789874E-03 -1.24491480E-02 -2.74857789E-02  3.41741053E-18
  6.07408464E-18  1.28392877E-02  7.37617098E-02 -4.14343334E-02  4.51082012E-02
 -3.73113814E-17  1.38274508E-01 -1.51608398E-01  2.27472479E-01 -1.36522499E-16
  1.15499236E-01  5.96478619E-02  8.15724112E-02 -5.78095702E-02  5.29157332E-17
 -5.20571889E-17 -1.50020173E-19 -5.25317903E-18 -1.38358469E-33 -1.05770386E-01
  3.95135853E-49 -2.75741729E-18 -4.72675140E-34  1.58376987E-02 -1.60630525E-49
 -5.57470063E-19 -4.57468620E-34  1.00000000E+00 -3.52658056E-18 -2.27911949E-17
  1.75908443E-17 -1.86291411E-18  1.54488023E-02 -5.56585990E-17  8.69735835E-17
 -9.21071856E-18  9.71199898E-02 -4.46087851E-17 -2.61869836E-17 -1.85463843E-17
  3.41741053E-18 -2.91234644E-02  3.08424723E-03  4.03303356E-17  2.31697785E-16
 -1.30152125E-16 -3.73113814E-17  5.69863954E-02  4.34343203E-16 -4.76227165E-16
 -1.36522499E-16  2.70934841E-01  3.62802290E-16  2.64990684E-16  1.78605656E-16
  5.29157332E-17 -7.46554583E-02 -2.14018655E-02  2.63183397E-33 -1.82320610E-32
 -1.93299382E-47  3.95135853E-49 -1.05770386E-01 -7.81730301E-32 -1.18063766E-47
 -1.60630525E-49  1.58376987E-02  3.60261954E-33  0.00000000E+00  0.00000000E+00
  1.00000000E+00  1.51486836E-02  9.41795010E-02 -2.79930151E-02  2.96452984E-03
  6.18617880E-18  2.26881842E-01 -1.55615986E-01  1.64801195E-02  3.43895900E-17
  1.27768797E-01  1.16255234E-01  1.16124641E-01 -2.13586997E-03 -4.45698788E-18
  4.72006089E-19  2.52557170E-02  1.54131570E-01 -3.15256782E-02 -9.03762886E-03
 -2.83886937E-17  3.54314409E-01 -1.66832106E-01 -4.78266209E-02 -1.50231362E-16
  1.98223551E-01  1.90014083E-01  1.89278996E-01  4.44129341E-03  1.39508405E-17
  3.99935943E-18  6.96784013E-03 -5.04154384E-02 -3.19396718E-17 -8.70098166E-19
 -5.78880116E-33 -2.44103058E-01  3.53136953E-17 -4.48419475E-18  2.58968680E-33
 -8.48703811E-01 -4.32335625E-17 -6.66946838E-19  0.00000000E+00  1.00000000E+00
  3.05199112E-02  1.82865596E-01 -2.69653269E-02  5.78400581E-03  1.20696691E-17
  3.98626705E-01 -1.19699321E-01  2.89552292E-02  6.04217986E-17  2.23039229E-01
  2.23871470E-01  2.23619988E-01 -2.00324715E-03 -4.18023960E-18  9.08937115E-19
  3.49305805E-02  2.05441636E-01  3.13480738E-03 -1.21054041E-02 -3.80250855E-17
  4.27357976E-01  3.88262819E-02 -5.76863017E-02 -1.81202257E-16  2.36305875E-01
  2.51193488E-01  2.50221722E-01 -5.19224230E-04 -1.63096957E-18  5.28704519E-18
  1.73837232E-19  1.81846482E-18  4.33703647E-03  0.00000000E+00  5.38817047E-49
 -5.36623863E-18  8.24216153E-02 -1.78041914E-34  4.27747492E-49  7.78493368E-19
  6.82609003E-01 -2.43414042E-34  0.00000000E+00  0.00000000E+00  1.00000000E+00
 -3.23213442E-03 -1.93659209E-02  5.78400581E-03  2.70384700E-02 -1.27820794E-18
 -4.22155583E-02  2.89552292E-02  1.50648317E-01 -6.39881857E-18 -2.60565667E-02
 -2.12723865E-02 -2.36819123E-02 -1.94862857E-02  9.08937115E-19  4.30627595E-18
  1.00137298E-02  5.88950141E-02 -1.21054041E-02  4.18913913E-02 -1.09008475E-17
  1.22512917E-01 -5.76863017E-02  2.23514375E-01 -5.19461863E-17  7.51221318E-02
  6.46318264E-02  7.17323525E-02 -2.06086138E-02  5.28704519E-18 -1.85579395E-17
 -3.34972665E-22  1.68430698E-19  0.00000000E+00  4.33703647E-03  1.08389849E-51
  1.27976112E-18 -1.78041914E-34  8.24216153E-02  2.67342182E-50  5.34817351E-19
 -2.43414042E-34  6.82609003E-01  0.00000000E+00  0.00000000E+00  0.00000000E+00
  1.00000000E+00 -6.74459779E-18 -4.04114836E-17  1.20696691E-17 -1.27820794E-18
  2.76510105E-02 -8.80925496E-17  6.04217986E-17 -6.39881857E-18  1.53714748E-01
 -5.43730674E-17 -4.94733754E-17 -4.43341913E-17  9.08937115E-19 -1.99218650E-02
  2.10977499E-03  3.14547890E-17  1.84999024E-16 -3.80250855E-17 -1.09008475E-17
  4.53617100E-02  3.84833425E-16 -1.81202257E-16 -5.19461863E-17  2.40051604E-01
  2.35971096E-16  2.26198306E-16  2.02144235E-16  5.28704519E-18 -2.22917611E-02
 -6.39049420E-03  3.08273679E-35  4.27270196E-34  5.38817047E-49  1.08389849E-51
  4.33703647E-03  9.40692467E-34  4.27747492E-49  2.67342182E-50  8.24216153E-02
  0.00000000E+00  0.00000000E+00  0.00000000E+00  6.82609003E-01  0.00000000E+00
  0.00000000E+00  0.00000000E+00  1.00000000E+00  5.84909108E-15  7.25921682E-07
 -2.85365312E-06  3.20843148E-07  6.69513612E-22  3.04181259E-03 -1.24619826E-02
  1.47051962E-03  3.06858011E-18  1.01596521E-04  3.06603404E-06  1.77899395E-06
 -1.96544897E-05 -4.10136494E-20  4.65178189E-21  1.12897295E-07  1.29739862E-03
 -3.30621276E-03 -1.07165465E-03 -3.36624530E-18  4.05267980E-02 -1.08806520E-01
 -3.65869341E-02 -1.14925639E-16  2.40797522E-02  3.49278595E-03  9.76594134E-04
  1.32634868E-02  4.16628155E-17  1.36897425E-17  1.98344511E-02 -3.30872276E-01
 -1.32725524E-16 -9.86610317E-18 -2.13131732E-32 -7.40523158E-01  4.06421392E-16
 -1.64875735E-17  3.02220885E-32 -1.08750581E-01  4.87069610E-16 -2.70538783E-18
  3.72396167E-32  1.56923171E-01  0.00000000E+00 -8.55375029E-19 -3.08888107E-33
  1.00000000E+00  9.18456502E-17  4.61672092E-08 -1.92738250E-07  1.77726637E-09
  4.25932425E-23  1.21658889E-03 -5.58489816E-03  4.40689889E-04  1.23420712E-18
  1.02175006E-05  3.70591667E-07  1.55065023E-07 -4.50495798E-07 -3.85155878E-21
  9.95551050E-23  1.02445532E-08  2.34946642E-04 -6.78506371E-04 -7.06653462E-05
 -6.10991125E-19  2.51523564E-02 -7.95500504E-02 -1.74102161E-02 -7.16343676E-17
  7.16500749E-03  4.41540642E-04  2.16165911E-04  1.51136104E-03  1.08381214E-17
  1.36097201E-18  1.98344511E-02 -3.30872276E-01 -4.42418414E-17 -2.95983095E-17
 -2.13131732E-32 -7.40523158E-01  1.35473797E-16 -4.94627205E-17  3.02220885E-32
 -1.08750581E-01  1.62356537E-16 -8.11616350E-18  3.72396167E-32  1.56923171E-01
  0.00000000E+00 -2.56612509E-18 -3.08888107E-33  3.33333333E-01  1.00000000E+00
  2.65438254E-17  3.84570624E-08 -1.60560908E-07  1.70037991E-08 -3.40219521E-24
  1.19588621E-03 -5.49074705E-03  5.81483753E-04  8.98795161E-19  9.01157635E-06
  2.36180866E-07  4.09936601E-07 -1.62791510E-06 -4.85527413E-22  5.14185592E-23
  1.05288324E-09  1.39813207E-04 -4.04535391E-04 -1.15970248E-04  2.47377156E-20
  2.37757074E-02 -7.52453470E-02 -2.15709720E-02 -5.08120203E-17  4.97763152E-03
  5.44981758E-04  4.44228317E-04  2.39804786E-03  1.44198148E-18  4.13380273E-19
  1.98344511E-02 -3.30872276E-01 -4.42418414E-17 -9.86610317E-18 -6.39395196E-32
 -7.40523158E-01  1.35473797E-16 -1.64875735E-17  9.06662655E-32 -1.08750581E-01
  1.62356537E-16 -2.70538783E-18  1.11718850E-31  1.56923171E-01  0.00000000E+00
 -8.55375029E-19 -9.26664321E-33  3.33333333E-01  3.33333333E-01  1.00000000E+00
 -1.06802101E-15 -1.26100592E-07  5.10127505E-07  9.66497027E-08 -1.16299389E-22
 -3.38595477E-04  1.40928923E-03  1.06981500E-03 -3.40292752E-19 -1.83278280E-05
  8.76165822E-07 -3.01253480E-07 -7.56520328E-06  7.16698640E-21  1.73414818E-21
  5.55347706E-08  5.74782768E-04 -1.54804053E-03 -1.00402920E-04 -1.49058277E-18
  8.31751855E-03 -2.13363691E-02  8.84136704E-03 -2.34204246E-17  1.12768279E-02
 -4.75297836E-04  4.11388981E-04  4.63150577E-04  1.84589677E-17  4.50527227E-19
 -2.21901519E-33 -1.81190441E-32 -1.70885920E-17 -7.66291171E-17 -5.51788435E-63
  9.81938493E-33 -2.85573150E-17  2.34647500E-16 -1.07120202E-63  7.10043249E-33
 -4.68586918E-18  2.81209770E-16  3.45891022E-64  0.00000000E+00 -1.48155301E-18
  0.00000000E+00  0.00000000E+00  3.44096925E-33  3.44096925E-33  1.14698975E-33
  1.00000000E+00 -2.22867345E-30 -2.63138121E-22  1.06449931E-21 -1.16299389E-22
  1.52382494E-07 -7.06557962E-19  2.94080870E-18 -3.40292752E-19  1.23288950E-03
 -3.82452623E-20 -1.08317174E-21  2.28285963E-21  7.16698640E-21 -1.09997540E-05
  1.20831458E-06  1.74443941E-22  1.80548817E-18 -4.86265248E-18 -1.49058277E-18
  3.74128737E-04  2.61267076E-17 -6.70210802E-17 -2.34204246E-17  1.62973320E-02
  3.54223899E-17  4.59769578E-18 -4.79844411E-18  1.84589677E-17 -5.41331914E-03
 -1.67921336E-03  7.50184773E-48 -6.50634917E-47 -3.69154988E-32 -5.51788435E-63
 -7.66291171E-17 -6.74093082E-47  5.23461928E-32 -1.07120202E-63  2.34647500E-16
  1.79042679E-47  6.45009082E-32  3.45891022E-64  2.81209770E-16  0.00000000E+00
 -5.35009895E-33  0.00000000E+00  0.00000000E+00  0.00000000E+00  0.00000000E+00
  0.00000000E+00  3.04310778E-48  1.00000000E+00  2.36022055E-31  2.78669807E-23
 -1.16299389E-22 -2.13586261E-23 -1.61376846E-08  7.48262435E-20 -3.40292752E-19
 -2.36418508E-19 -1.30566061E-04  4.35860283E-21 -1.93623960E-22 -2.41760506E-22
  1.73414818E-21  1.20831458E-06  2.81973085E-07  5.00087448E-23  5.17588611E-19
 -1.49058277E-18 -9.04122581E-20  1.07253416E-04  7.48987811E-18 -2.34204246E-17
  7.96160069E-18  4.67204027E-03  1.19007675E-17 -4.28002996E-19 -1.37559474E-18
  4.50527227E-19 -1.67921336E-03 -3.71604439E-05  9.87440930E-49 -4.94345871E-50
 -5.51788435E-63 -3.69154988E-32 -1.70885920E-17 -2.17054458E-48 -1.07120202E-63
  5.23461928E-32 -2.85573150E-17  1.79426438E-48  3.45891022E-64  6.45009082E-32
 -4.68586918E-18  9.88654787E-49  0.00000000E+00 -5.35009895E-33 -1.48155301E-18
  1.75693909E-48  5.27081728E-48  5.27081728E-48  0.00000000E+00  1.98664452E-33
  1.00000000E+00  4.28311461E-05  2.82204833E-03 -5.53835639E-03  6.62892138E-04
  1.38327813E-18  4.74714246E-02 -1.30187834E-01  1.69829852E-02  3.54389360E-17
  2.67570754E-02  3.54469546E-03  3.19642213E-03 -4.98583344E-03 -1.04040974E-17
  1.25877320E-18  7.47322653E-03  8.92633499E-02 -1.13656630E-01 -4.25484755E-02
 -1.33651830E-16  2.40614974E-01 -3.71892696E-01 -1.59964895E-01 -5.02476310E-16
  2.55600009E-01  1.02923477E-01  7.47845040E-02  1.26930392E-01  3.98709450E-16
  1.53094566E-16  2.83182615E-04 -2.05986448E-02 -1.99055776E-17 -4.93105726E-19
 -1.42770485E-33 -3.44531721E-01  4.26410610E-16  2.55094493E-18  2.32404837E-32
 -5.90933024E-01  1.49005322E-16  6.20855508E-18  2.19314457E-32  4.09796958E-01
  0.00000000E+00  0.00000000E+00  0.00000000E+00  3.95209999E-01  1.31736666E-01
  1.31736666E-01  0.00000000E+00  1.03220021E-48  0.00000000E+00  1.00000000E+00
  6.04408206E-07  1.12658771E-04 -2.45345484E-04 -5.03837418E-05  5.42189194E-20
  8.78202712E-03 -2.96667788E-02 -5.39845769E-05  6.55606399E-18  1.71520118E-03
  3.41934011E-04  1.60074441E-04  4.24973902E-04 -5.95249729E-19 -9.39150191E-20
  6.53582037E-04  1.23446975E-02 -1.97747436E-02  4.29701495E-03 -1.78070441E-17
  8.85678718E-02 -2.05394201E-01 -5.52891955E-03 -1.84956309E-16  6.48701640E-02
  1.36907209E-02  1.16287512E-02 -1.66450298E-02  8.30407324E-17 -1.49887546E-17