
Running Job 1 of 1 sys_3_631Gd_b3lyp.in
qchem sys_3_631Gd_b3lyp.in_9075.0 /scr/c295_lal/137045/qchem9075/ 1
/usr/software/qchem_511/exe/qcprog.exe_s sys_3_631Gd_b3lyp.in_9075.0 /scr/c295_lal/137045/qchem9075/
Check license passed

                  Welcome to Q-Chem
     A Quantum Leap Into The Future Of Chemistry


 Q-Chem 5.1, Q-Chem, Inc., Pleasanton, CA (2018)

 Yihan Shao,  Zhengting Gan,  E. Epifanovsky,  A. T. B. Gilbert,  M. Wormit,  
 J. Kussmann,  A. W. Lange,  A. Behn,  Jia Deng,  Xintian Feng,  D. Ghosh,  
 M. Goldey,  P. R. Horn,  L. D. Jacobson,  I. Kaliman,  T. Kus,  A. Landau,  
 Jie Liu,  E. I. Proynov,  R. M. Richard,  R. P. Steele,  E. J. Sundstrom,  
 H. L. Woodcock III,  P. M. Zimmerman,  D. Zuev,  B. Albrecht,  E. Alguire,  
 S. A. Baeppler,  D. Barton,  Z. Benda,  Y. A. Bernard,  E. J. Berquist,  
 K. B. Bravaya,  H. Burton,  D. Casanova,  Chun-Min Chang,  Yunqing Chen,  
 A. Chien,  K. D. Closser,  M. P. Coons,  S. Coriani,  S. Dasgupta,  
 A. L. Dempwolff,  M. Diedenhofen,  Hainam Do,  R. G. Edgar,  Po-Tung Fang,  
 S. Faraji,  S. Fatehi,  Qingguo Feng,  K. D. Fenk,  J. Fosso-Tande,  
 Qinghui Ge,  A. Ghysels,  G. Gidofalvi,  J. Gomes,  J. Gonthier,  A. Gunina,  
 D. Hait,  M. W. D. Hanson-Heine,  P. H. P. Harbach,  A. W. Hauser,  
 J. E. Herr,  E. G. Hohenstein,  Z. C. Holden,  Kerwin Hui,  B. C. Huynh,  
 T.-C. Jagau,  Hyunjun Ji,  B. Kaduk,  K. Khistyaev,  Jaehoon Kim,  
 P. Klunzinger,  K. Koh,  D. Kosenkov,  L. Koulias,  T. Kowalczyk,  
 C. M. Krauter,  A. Kunitsa,  Ka Un Lao,  A. Laurent,  K. V. Lawler,  
 Joonho Lee,  D. Lefrancois,  S. Lehtola,  D. S. Levine,  Yi-Pei Li,  
 You-Sheng Lin,  Fenglai Liu,  E. Livshits,  A. Luenser,  P. Manohar,  
 E. Mansoor,  S. F. Manzer,  Shan-Ping Mao,  Yuezhi Mao,  N. Mardirossian,  
 A. V. Marenich,  T. Markovich,  L. A. Martinez-Martinez,  S. A. Maurer,  
 N. J. Mayhall,  S. C. McKenzie,  J.-M. Mewes,  A. F. Morrison,  
 J. W. Mullinax,  K. Nanda,  T. S. Nguyen-Beck,  R. Olivares-Amaya,  
 J. A. Parkhill,  T. M. Perrine,  F. Plasser,  P. Pokhilko,  S. Prager,  
 A. Prociuk,  E. Ramos,  D. R. Rehn,  F. Rob,  M. Schneider,  N. Sergueev,  
 S. M. Sharada,  S. Sharma,  D. W. Small,  T. Stauch,  T. Stein,  
 Yu-Chuan Su,  A. J. W. Thom,  A. Tkatchenko,  T. Tsuchimochi,  N. M. Tubman,  
 L. Vogt,  M. L. Vidal,  O. Vydrov,  M. A. Watson,  J. Wenzel,  
 M. de Wergifosse,  T. A. Wesolowski,  A. White,  J. Witte,  A. Yamada,  
 Jun Yang,  K. Yao,  S. Yeganeh,  S. R. Yost,  Zhi-Qiang You,  A. Zech,  
 Igor Ying Zhang,  Xing Zhang,  Yan Zhao,  Ying Zhu,  B. R. Brooks,  
 G. K. L. Chan,  C. J. Cramer,  M. S. Gordon,  W. J. Hehre,  A. Klamt,  
 M. W. Schmidt,  C. D. Sherrill,  D. G. Truhlar,  A. Aspuru-Guzik,  R. Baer,  
 A. T. Bell,  N. A. Besley,  Jeng-Da Chai,  A. E. DePrince, III,  
 R. A. DiStasio Jr.,  A. Dreuw,  B. D. Dunietz,  T. R. Furlani,  
 Chao-Ping Hsu,  Yousung Jung,  Jing Kong,  D. S. Lambrecht,  WanZhen Liang,  
 C. Ochsenfeld,  V. A. Rassolov,  L. V. Slipchenko,  J. E. Subotnik,  
 T. Van Voorhis,  J. M. Herbert,  A. I. Krylov,  P. M. W. Gill,  M. Head-Gordon

 Contributors to earlier versions of Q-Chem not listed above: 
 R. D. Adamson,  B. Austin,  J. Baker,  G. J. O. Beran,  K. Brandhorst,  
 S. T. Brown,  E. F. C. Byrd,  A. K. Chakraborty,  C.-L. Cheng,  
 Siu Hung Chien,  D. M. Chipman,  D. L. Crittenden,  H. Dachsel,  
 R. J. Doerksen,  A. D. Dutoi,  L. Fusti-Molnar,  W. A. Goddard III,  
 A. Golubeva-Zadorozhnaya,  S. R. Gwaltney,  G. Hawkins,  A. Heyden,  
 S. Hirata,  G. Kedziora,  F. J. Keil,  C. Kelley,  Jihan Kim,  R. A. King,  
 R. Z. Khaliullin,  P. P. Korambath,  W. Kurlancheek,  A. M. Lee,  M. S. Lee,  
 S. V. Levchenko,  Ching Yeh Lin,  D. Liotard,  R. C. Lochan,  I. Lotan,  
 P. E. Maslen,  N. Nair,  D. P. O'Neill,  D. Neuhauser,  E. Neuscamman,  
 C. M. Oana,  R. Olson,  B. Peters,  R. Peverati,  P. A. Pieniazek,  
 Y. M. Rhee,  J. Ritchie,  M. A. Rohrdanz,  E. Rosta,  N. J. Russ,  
 H. F. Schaefer III,  N. E. Schultz,  N. Shenvi,  A. C. Simmonett,  A. Sodt,  
 D. Stuck,  K. S. Thanthiriwatte,  V. Vanovschi,  Tao Wang,  A. Warshel,  
 C. F. Williams,  Q. Wu,  X. Xu,  W. Zhang

 Please cite Q-Chem as follows:
 Y. Shao et al., Mol. Phys. 113, 184-215 (2015)
 DOI: 10.1080/00268976.2014.952696

 Q-Chem 5.1.1 for Intel X86 EM64T Linux

 Parts of Q-Chem use Armadillo 8.300.2 (Tropical Shenanigans).
 http://arma.sourceforge.net/

 Q-Chem begins on Wed Oct 31 13:36:06 2018  

Host: cub-0-14.local
0

     Scratch files written to /scr/c295_lal/137045/qchem9075//
 Aug318 |scratch|qcdevops|jenkins|workspace|build_RNUM -1
Processing $rem in /usr/software/qchem_511/config/preferences.
 MEM_TOTAL  2000 
Input Ideriv = 2
Curr. Ideriv = -1
Max.  Ideriv = 2

Checking the input file for inconsistencies... 	...done.

--------------------------------------------------------------
User input:
--------------------------------------------------------------
$rem
JOBTYPE Opt
EXCHANGE B3LYP
BASIS 6-31G(d)
MAX_SCF_CYCLES = 500
GUI=2
$end

$comment
sys_3
$end

$molecule
3 4
O        1.67468        0.46332        0.00000
O        0.94033       -0.42288        0.00000
Fe       -0.91909       -0.10709        0.00000
$end

--------------------------------------------------------------
 ----------------------------------------------------------------
             Standard Nuclear Orientation (Angstroms)
    I     Atom           X                Y                Z
 ----------------------------------------------------------------
    1      O       1.7926012921    -0.3254123202    -0.0000000000
    2      O       0.9646359401     0.4740210656     0.0000000000
    3      Fe     -0.8483806869    -0.0457257678    -0.0000000000
 ----------------------------------------------------------------
 Molecular Point Group                 Cs    NOp =  2
 Largest Abelian Subgroup              Cs    NOp =  2
 Nuclear Repulsion Energy =   129.2313774266 hartrees
 There are       21 alpha and       18 beta electrons
 Requested basis set is 6-31G(d)
 There are 16 shells and 66 basis functions

 Total QAlloc Memory Limit   2000 MB
 Mega-Array Size       188 MB
 MEM_STATIC part       192 MB
 A cutoff of  1.0D-11 yielded    131 shell pairs
 There are      2324 function pairs (      2552 Cartesian)
 
 -------------------------------------------------------
 OpenMP Integral Computing Module                       
 Release: version 1.0, May 2013, Q-Chem Inc. Pittsburgh 
 -------------------------------------------------------
 Integral Job Info:
 Integral job number is                      11
 Integral operator is                         1
 short-range coefficients                     0
 long-range coefficients              100000000
 Omega coefficients                           0
 if combine SR and LR in K                    0
 Integral screening is                        0
 Integral computing path is                   2
 max size of driver memory is            800000
 size of driver memory is                776718
 size of scratch memory is             15447240
 max col of scratch BK array              10000
 max len of scratch array in speh3          662
 max len of scratch index in speh4           32
 max int batch size is                      520
 min int batch size is                       52
 fixed nKL is                                52
 max L of basis functions is                  3
 order of int derivative is                   0
 number of shells is                         16
 number of basis is                          69
 number of cartesian basis is                69
 number of contracted shell pairs           131
 number of primitive shell pairs            962
 maxK2 (contraction) of shell pair           36
 max number of K2 of shell pair               1
 max number of CS2 of shell pair             13
 max number of PS2 of shell pair            108
 mem total for path MDJ                  529878
 -------------------------------------------------------
 Smallest overlap matrix eigenvalue = 1.76E-03

 Scale SEOQF with 1.000000e-01/1.000000e-01/1.000000e-01

 Standard Electronic Orientation quadrupole field applied
 Nucleus-field energy     =     0.0000000020 hartrees
 Guess from superposition of atomic densities
 Warning:  Energy on first SCF cycle will be non-variational
 SAD guess density has 41.991007 electrons

 -----------------------------------------------------------------------
  General SCF calculation program by
  Eric Jon Sundstrom, Paul Horn, Yuezhi Mao, Dmitri Zuev, Alec White,
  David Stuck, Shaama M.S., Shane Yost, Joonho Lee, David Small,
  Daniel Levine, Susi Lehtola, Hugh Burton, Evgeny Epifanovsky
 -----------------------------------------------------------------------
 Exchange:     0.2000 Hartree-Fock + 0.0800 Slater + 0.7200 B88
 Correlation:  0.1900 VWN1RPA + 0.8100 LYP
 Using SG-1 standard quadrature grid
 using 12 threads for integral computing
 -------------------------------------------------------
 OpenMP Integral computing Module                
 Release: version 1.0, May 2013, Q-Chem Inc. Pittsburgh 
 -------------------------------------------------------
 -------------------------------------------------------
 OpenMP BLAS3 based DFT computing Module                
 Release: version 1.0, May 2013, Q-Chem Inc. Pittsburgh 
 -------------------------------------------------------
 A unrestricted SCF calculation will be
 performed using DIIS
 SCF converges when DIIS error is below 1.0e-08
 ---------------------------------------
  Cycle       Energy         DIIS error
 ---------------------------------------
    1   -1413.8733402253      1.62e-01  
    2   -1411.8685047212      9.95e-03  
    3   -1411.6780946748      1.53e-02  
    4   -1408.4951362069      3.75e-02  
    5   -1411.9958854772      5.22e-03  
    6   -1412.0143047956      5.22e-03  
    7   -1412.0732514417      1.91e-03  
    8   -1412.0760648988      3.07e-03  
    9   -1412.0796543575      2.80e-03  
   10   -1412.0963243167      9.07e-04  
   11   -1412.0985555338      7.66e-04  
   12   -1412.0996378505      2.05e-04  
   13   -1412.0998696109      1.37e-04  
   14   -1412.0999247695      1.92e-05  
   15   -1412.0999277733      8.53e-06  
   16   -1412.0999285213      6.81e-06  
   17   -1412.0999287180      1.05e-06  
   18   -1412.0999287438      1.11e-06  
   19   -1412.0999287501      2.06e-07  
   20   -1412.0999287518      1.61e-07  
   21   -1412.0999287536      1.12e-07  
   22   -1412.0999287550      6.31e-08  
   23   -1412.0999287551      2.69e-08  
   24   -1412.0999287551      3.08e-09  Convergence criterion met
 ---------------------------------------
 SCF time:   CPU 29.62s  wall 3.00s 
<S^2> =          4.844461124
 SCF   energy in the final basis set =    -1412.0999287551
 Total energy in the final basis set =    -1412.0999287551
 
 --------------------------------------------------------------
             Orbital Energies (a.u.) and Symmetries
 --------------------------------------------------------------
 
 Alpha MOs, Unrestricted
 -- Occupied --                  
-257.12  -31.12  -26.99  -26.97  -26.97  -20.26  -20.26   -4.58
  1 A'    2 A'    3 A'    1 A"    4 A'    5 A'    6 A'    7 A'                 
 -3.383  -3.337  -3.334  -2.243  -1.678  -1.449  -1.419  -1.400
  8 A'    2 A"    9 A'   10 A'   11 A'   12 A'    3 A"   13 A'                 
 -1.356  -1.354  -1.343  -1.307  -1.303
 14 A'    4 A"   15 A'   16 A'    5 A"                                         
 -- Virtual --                   
 -1.016  -0.999  -0.882  -0.685  -0.661  -0.599  -0.538  -0.426
  6 A"   17 A'   18 A'   19 A'    7 A"   20 A'   21 A'   22 A'                 
 -0.322  -0.315  -0.301  -0.036   0.006   0.039   0.063   0.150
 23 A'    8 A"   24 A'   25 A'    9 A"   26 A'   27 A'   10 A"                 
  0.161   0.179   0.333   0.444   0.463   0.483   0.494   0.561
 28 A'   29 A'   30 A'   31 A'   11 A"   12 A"   32 A'   33 A'                 
  0.620   0.663   0.754   0.763   1.031   1.063   1.112   1.232
 34 A'   13 A"   14 A"   35 A'   36 A'   15 A"   37 A'   38 A'                 
  1.233   1.245   1.254   1.287   1.461   1.658   1.742   1.773
 16 A"   17 A"   39 A'   40 A'   18 A"   41 A'   42 A'   19 A"                 
  2.014   2.043   2.543   2.855  19.304
 43 A'   44 A'   45 A'   46 A'   47 A'                                         
 
 Beta MOs, Unrestricted
 -- Occupied --                  
-257.12  -31.03  -26.91  -26.90  -26.90  -20.29  -20.27   -4.37
  1 A'    2 A'    3 A'    1 A"    4 A'    5 A'    6 A'    7 A'                 
 -3.138  -3.132  -3.130  -2.275  -1.721  -1.496  -1.450  -1.446
  8 A'    9 A'    2 A"   10 A'   11 A'   12 A'    3 A"   13 A'                 
 -1.199  -1.171
 14 A'    4 A"                                                                 
 -- Virtual --                   
 -1.061  -1.027  -1.023  -1.020  -0.985  -0.849  -0.664  -0.637
  5 A"   15 A'   16 A'    6 A"   17 A'   18 A'   19 A'    7 A"                 
 -0.595  -0.545  -0.416  -0.304  -0.298  -0.286  -0.030  -0.001
 20 A'   21 A'   22 A'   23 A'    8 A"   24 A'   25 A'    9 A"                 
  0.026   0.049   0.131   0.161   0.177   0.340   0.491   0.494
 26 A'   27 A'   10 A"   28 A'   29 A'   30 A'   11 A"   31 A'                 
  0.552   0.583   0.586   0.653   0.656   0.767   0.812   1.005
 32 A'   33 A'   12 A"   34 A'   13 A"   14 A"   35 A'   36 A'                 
  1.044   1.173   1.321   1.329   1.331   1.334   1.350   1.502
 15 A"   37 A'   16 A"   38 A'   39 A'   17 A"   40 A'   18 A"                 
  1.652   1.749   1.759   2.002   2.058   2.512   2.838  19.420
 41 A'   42 A'   19 A"   43 A'   44 A'   45 A'   46 A'   47 A'                 
 --------------------------------------------------------------
 
          Ground-State Mulliken Net Atomic Charges

     Atom                 Charge (a.u.)    Spin (a.u.)
  --------------------------------------------------------
      1 O                     0.658449      -0.922900
      2 O                     0.223813      -0.239777
      3 Fe                    2.117738       4.162677
  --------------------------------------------------------
  Sum of atomic charges =     3.000000
  Sum of spin   charges =     3.000000

 -----------------------------------------------------------------
                    Cartesian Multipole Moments
 -----------------------------------------------------------------
    Charge (ESU x 10^10)
                14.4096
    Dipole Moment (Debye)
         X      -1.7923      Y      -0.7889      Z       0.0000
       Tot       1.9582
    Quadrupole Moments (Debye-Ang)
        XX       5.3368     XY      -0.5397     YY     -14.3628
        XZ      -0.0000     YZ       0.0000     ZZ     -15.1080
    Octopole Moments (Debye-Ang^2)
       XXX      -0.4749    XXY      -2.9196    XYY      -4.5201
       YYY      -1.3905    XXZ      -0.0000    XYZ       0.0000
       YYZ      -0.0000    XZZ      -4.7403    YZZ      -0.4871
       ZZZ       0.0000
    Hexadecapole Moments (Debye-Ang^3)
      XXXX     -89.8754   XXXY      -4.8805   XXYY     -23.1104
      XYYY       0.1261   YYYY     -15.6837   XXXZ      -0.0000
      XXYZ       0.0000   XYYZ       0.0000   YYYZ      -0.0000
      XXZZ     -22.8931   XYZZ      -0.0010   YYZZ      -3.8305
      XZZZ       0.0000   YZZZ       0.0000   ZZZZ      -7.4934
 -----------------------------------------------------------------
 Calculating analytic gradient of the SCF energy
 Gradient of SCF Energy
            1           2           3
    1  -0.0379386  -0.0333121   0.0712507
    2  -0.0023994  -0.0003058   0.0027052
    3  -0.0000000   0.0000000  -0.0000000
 Max gradient component =       7.125E-02
 RMS gradient           =       2.913E-02
 Gradient time:  CPU 7.84 s  wall 0.73 s
 Geometry Optimization Parameters
   NAtoms,    NIC,     NZ,  NCons,   NDum,   NFix, NCnnct, MaxDiis
        3       9       0       0       0       0       0       0


** GEOMETRY OPTIMIZATION IN DELOCALIZED INTERNAL COORDINATES **
   Searching for a Minimum

   Optimization Cycle:   1

                       Coordinates (Angstroms)
     ATOM                X               Y               Z
      1  O         1.7926012921   -0.3254123202    0.0000000000
      2  O         0.9646359401    0.4740210656    0.0000000000
      3  Fe       -0.8483806869   -0.0457257678    0.0000000000
   Point Group: cs    Number of degrees of freedom:     3


   Energy is  -1412.099928755


 Attempting to Generate Delocalized Internal Coordinates

  3 Hessian modes will be used to form the next step
  Hessian Eigenvalues:
     0.203616    0.250000    1.339237

 Minimum Search - Taking Simple RFO Step
 Searching for Lamda that Minimizes Along All modes
 Value Taken    Lamda =  -0.03375960
 Calculated Step too Large.  Step scaled by  0.827185
 Step Taken.  Stepsize is  0.300000

                             Maximum     Tolerance    Cnvgd?
         Gradient           0.084627      0.000300      NO
         Displacement       0.244385      0.001200      NO
         Energy change     *********      0.000001      NO


 New Cartesian Coordinates Obtained by Inverse Iteration

 Displacement from previous Coordinates is:  0.361358
 ----------------------------------------------------------------
             Standard Nuclear Orientation (Angstroms)
    I     Atom           X                Y                Z
 ----------------------------------------------------------------
    1      O       1.9055103833    -0.2915308746     0.0000000000
    2      O       0.9851179457     0.4130184641     0.0000000000
    3      Fe     -0.9817717835    -0.0186046120     0.0000000000
 ----------------------------------------------------------------
 Molecular Point Group                 Cs    NOp =  2
 Largest Abelian Subgroup              Cs    NOp =  2
 Nuclear Repulsion Energy =   121.8316781822 hartrees
 There are       21 alpha and       18 beta electrons
 Applying Cartesian multipole field
    Component          Value
    ---------          -----
     (2,0,0)        1.00000E-11
     (0,2,0)        2.00000E-11
     (0,0,2)       -3.00000E-11
 Nucleus-field energy     =     0.0000000024 hartrees
 Requested basis set is 6-31G(d)
 There are 16 shells and 66 basis functions
 A cutoff of  1.0D-11 yielded    130 shell pairs
 There are      2320 function pairs (      2548 Cartesian)
 Smallest overlap matrix eigenvalue = 1.76E-03
 Guess MOs from SCF MO coefficient file

 -----------------------------------------------------------------------
  General SCF calculation program by
  Eric Jon Sundstrom, Paul Horn, Yuezhi Mao, Dmitri Zuev, Alec White,
  David Stuck, Shaama M.S., Shane Yost, Joonho Lee, David Small,
  Daniel Levine, Susi Lehtola, Hugh Burton, Evgeny Epifanovsky
 -----------------------------------------------------------------------
 Exchange:     0.2000 Hartree-Fock + 0.0800 Slater + 0.7200 B88
 Correlation:  0.1900 VWN1RPA + 0.8100 LYP
 Using SG-1 standard quadrature grid
 using 12 threads for integral computing
 -------------------------------------------------------
 OpenMP Integral computing Module                
 Release: version 1.0, May 2013, Q-Chem Inc. Pittsburgh 
 -------------------------------------------------------
 -------------------------------------------------------
 OpenMP BLAS3 based DFT computing Module                
 Release: version 1.0, May 2013, Q-Chem Inc. Pittsburgh 
 -------------------------------------------------------
 A unrestricted SCF calculation will be
 performed using DIIS
 SCF converges when DIIS error is below 1.0e-08
 ---------------------------------------
  Cycle       Energy         DIIS error
 ---------------------------------------
    1   -1412.1060488948      1.99e-03  
    2   -1412.1183469339      1.37e-03  
    3   -1412.1000210458      3.33e-03  
    4   -1412.1215801928      6.15e-04  
    5   -1412.1220720740      3.20e-04  
    6   -1412.1222378603      1.50e-04  
    7   -1412.1223054215      5.79e-05  
    8   -1412.1223217742      3.23e-05  
    9   -1412.1223315616      9.92e-06  
   10   -1412.1223369127      9.14e-06  
   11   -1412.1223426932      6.08e-06  
   12   -1412.1223462429      4.27e-06  
   13   -1412.1223489865      2.43e-06  
   14   -1412.1223493414      1.24e-06  
   15   -1412.1223493483      1.48e-07  
   16   -1412.1223493484      9.31e-08  
   17   -1412.1223493484      1.78e-08  
   18   -1412.1223493484      1.92e-09  Convergence criterion met
 ---------------------------------------
 SCF time:   CPU 22.79s  wall 1.00s 
<S^2> =          4.829071510
 SCF   energy in the final basis set =    -1412.1223493484
 Total energy in the final basis set =    -1412.1223493484
 
 --------------------------------------------------------------
             Orbital Energies (a.u.) and Symmetries
 --------------------------------------------------------------
 
 Alpha MOs, Unrestricted
 -- Occupied --                  
-257.08  -31.08  -26.96  -26.93  -26.93  -20.25  -20.24   -4.54
  1 A'    2 A'    3 A'    1 A"    4 A'    5 A'    6 A'    7 A'                 
 -3.353  -3.299  -3.298  -2.213  -1.656  -1.422  -1.395  -1.369
  8 A'    2 A"    9 A'   10 A'   11 A'   12 A'    3 A"   13 A'                 
 -1.325  -1.321  -1.317  -1.284  -1.267
 14 A'    4 A"   15 A'   16 A'    5 A"                                         
 -- Virtual --                   
 -1.007  -0.983  -0.874  -0.670  -0.647  -0.604  -0.534  -0.427
  6 A"   17 A'   18 A'   19 A'    7 A"   20 A'   21 A'   22 A'                 
 -0.312  -0.305  -0.301  -0.020   0.016   0.053   0.073   0.160
 23 A'    8 A"   24 A'   25 A'    9 A"   26 A'   27 A'   10 A"                 
  0.164   0.179   0.325   0.448   0.502   0.504   0.524   0.582
 28 A'   29 A'   30 A'   31 A'   11 A"   32 A'   12 A"   33 A'                 
  0.658   0.678   0.745   0.754   1.028   1.102   1.109   1.256
 34 A'   13 A"   14 A"   35 A'   36 A'   15 A"   37 A'   38 A'                 
  1.258   1.271   1.272   1.312   1.390   1.584   1.691   1.774
 16 A"   17 A"   39 A'   40 A'   18 A"   41 A'   42 A'   19 A"                 
  1.974   2.048   2.519   2.850  19.316
 43 A'   44 A'   45 A'   46 A'   47 A'                                         
 
 Beta MOs, Unrestricted
 -- Occupied --                  
-257.08  -31.00  -26.88  -26.86  -26.86  -20.27  -20.25   -4.34
  1 A'    2 A'    3 A'    1 A"    4 A'    5 A'    6 A'    7 A'                 
 -3.107  -3.098  -3.097  -2.244  -1.700  -1.467  -1.429  -1.422
  8 A'    9 A'    2 A"   10 A'   11 A'   12 A'   13 A'    3 A"                 
 -1.178  -1.145
 14 A'    4 A"                                                                 
 -- Virtual --                   
 -1.047  -0.999  -0.993  -0.990  -0.955  -0.844  -0.651  -0.624
  5 A"   15 A'   16 A'    6 A"   17 A'   18 A'   19 A'    7 A"                 
 -0.599  -0.542  -0.418  -0.293  -0.289  -0.286  -0.022   0.011
 20 A'   21 A'   22 A'   23 A'    8 A"   24 A'   25 A'    9 A"                 
  0.041   0.058   0.144   0.156   0.191   0.343   0.483   0.545
 26 A'   27 A'   10 A"   28 A'   29 A'   30 A'   31 A'   11 A"                 
  0.587   0.608   0.618   0.658   0.665   0.759   0.806   1.030
 32 A'   33 A'   12 A"   34 A'   13 A"   14 A"   35 A'   36 A'                 
  1.075   1.149   1.345   1.348   1.356   1.359   1.387   1.439
 15 A"   37 A'   16 A"   38 A'   39 A'   17 A"   40 A'   18 A"                 
  1.605   1.677   1.762   1.976   2.040   2.491   2.830  19.431
 41 A'   42 A'   19 A"   43 A'   44 A'   45 A'   46 A'   47 A'                 
 --------------------------------------------------------------
 
          Ground-State Mulliken Net Atomic Charges

     Atom                 Charge (a.u.)    Spin (a.u.)
  --------------------------------------------------------
      1 O                     0.677121      -0.854020
      2 O                     0.229278      -0.268924
      3 Fe                    2.093601       4.122944
  --------------------------------------------------------
  Sum of atomic charges =     3.000000
  Sum of spin   charges =     3.000000

 -----------------------------------------------------------------
                    Cartesian Multipole Moments
 -----------------------------------------------------------------
    Charge (ESU x 10^10)
                14.4096
    Dipole Moment (Debye)
         X      -2.3714      Y      -0.5136      Z      -0.0000
       Tot       2.4264
    Quadrupole Moments (Debye-Ang)
        XX       9.3356     XY      -0.9014     YY     -14.5177
        XZ      -0.0000     YZ       0.0000     ZZ     -15.0771
    Octopole Moments (Debye-Ang^2)
       XXX       1.7899    XXY      -3.2138    XYY      -4.3452
       YYY      -1.6444    XXZ      -0.0000    XYZ       0.0000
       YYZ      -0.0000    XZZ      -4.1379    YZZ      -0.5426
       ZZZ      -0.0000
    Hexadecapole Moments (Debye-Ang^3)
      XXXX     -96.3110   XXXY      -5.3866   XXYY     -26.4055
      XYYY       0.7312   YYYY     -13.8321   XXXZ      -0.0000
      XXYZ       0.0000   XYYZ      -0.0000   YYYZ       0.0000
      XXZZ     -26.1946   XYZZ       0.2038   YYZZ      -3.4864
      XZZZ      -0.0000   YZZZ       0.0000   ZZZZ      -7.4205
 -----------------------------------------------------------------
 Calculating analytic gradient of the SCF energy
 Gradient of SCF Energy
            1           2           3
    1  -0.0002581  -0.0483284   0.0485865
    2  -0.0211706   0.0208549   0.0003157
    3   0.0000000  -0.0000000  -0.0000000
 Max gradient component =       4.859E-02
 RMS gradient           =       2.490E-02
 Gradient time:  CPU 7.85 s  wall 0.70 s
 Geometry Optimization Parameters
   NAtoms,    NIC,     NZ,  NCons,   NDum,   NFix, NCnnct, MaxDiis
        3       9       0       0       0       0       0       0

 Cartesian Hessian Update
 Hessian Updated using BFGS Update


** GEOMETRY OPTIMIZATION IN DELOCALIZED INTERNAL COORDINATES **
   Searching for a Minimum

   Optimization Cycle:   2

                       Coordinates (Angstroms)
     ATOM                X               Y               Z
      1  O         1.9055103833   -0.2915308746    0.0000000000
      2  O         0.9851179457    0.4130184641    0.0000000000
      3  Fe       -0.9817717835   -0.0186046120    0.0000000000
   Point Group: cs    Number of degrees of freedom:     3


   Energy is  -1412.122349348

 Hessian Updated using BFGS Update

  3 Hessian modes will be used to form the next step
  Hessian Eigenvalues:
     0.097282    0.237359    1.467907

 Minimum Search - Taking Simple RFO Step
 Searching for Lamda that Minimizes Along All modes
 Value Taken    Lamda =  -0.02912470
 Calculated Step too Large.  Step scaled by  0.627960
 Step Taken.  Stepsize is  0.300000

                             Maximum     Tolerance    Cnvgd?
         Gradient           0.046442      0.000300      NO
         Displacement       0.227473      0.001200      NO
         Energy change     -0.022421      0.000001      NO


 New Cartesian Coordinates Obtained by Inverse Iteration

 Displacement from previous Coordinates is:  0.334026
 ----------------------------------------------------------------
             Standard Nuclear Orientation (Angstroms)
    I     Atom           X                Y                Z
 ----------------------------------------------------------------
    1      O       1.9983828670    -0.2507262498     0.0000000000
    2      O       1.0147862580     0.3466568102     0.0000000000
    3      Fe     -1.1043125796     0.0069524171     0.0000000000
 ----------------------------------------------------------------
 Molecular Point Group                 Cs    NOp =  2
 Largest Abelian Subgroup              Cs    NOp =  2
 Nuclear Repulsion Energy =   116.0695977374 hartrees
 There are       21 alpha and       18 beta electrons
 Applying Cartesian multipole field
    Component          Value
    ---------          -----
     (2,0,0)        1.00000E-11
     (0,2,0)        2.00000E-11
     (0,0,2)       -3.00000E-11
 Nucleus-field energy     =     0.0000000027 hartrees
 Requested basis set is 6-31G(d)
 There are 16 shells and 66 basis functions
 A cutoff of  1.0D-11 yielded    129 shell pairs
 There are      2304 function pairs (      2532 Cartesian)
 Smallest overlap matrix eigenvalue = 1.76E-03
 Guess MOs from SCF MO coefficient file

 -----------------------------------------------------------------------
  General SCF calculation program by
  Eric Jon Sundstrom, Paul Horn, Yuezhi Mao, Dmitri Zuev, Alec White,
  David Stuck, Shaama M.S., Shane Yost, Joonho Lee, David Small,
  Daniel Levine, Susi Lehtola, Hugh Burton, Evgeny Epifanovsky
 -----------------------------------------------------------------------
 Exchange:     0.2000 Hartree-Fock + 0.0800 Slater + 0.7200 B88
 Correlation:  0.1900 VWN1RPA + 0.8100 LYP
 Using SG-1 standard quadrature grid
 using 12 threads for integral computing
 -------------------------------------------------------
 OpenMP Integral computing Module                
 Release: version 1.0, May 2013, Q-Chem Inc. Pittsburgh 
 -------------------------------------------------------
 -------------------------------------------------------
 OpenMP BLAS3 based DFT computing Module                
 Release: version 1.0, May 2013, Q-Chem Inc. Pittsburgh 
 -------------------------------------------------------
 A unrestricted SCF calculation will be
 performed using DIIS
 SCF converges when DIIS error is below 1.0e-08
 ---------------------------------------
  Cycle       Energy         DIIS error
 ---------------------------------------
    1   -1412.1244971379      1.86e-03  
    2   -1412.1363419550      1.05e-03  
    3   -1412.1302288818      2.08e-03  
    4   -1412.1382978219      3.16e-04  
    5   -1412.1383910868      2.64e-04  
    6   -1412.1385094322      9.17e-05  
    7   -1412.1385408566      3.00e-05  
    8   -1412.1385523217      1.10e-05  
    9   -1412.1385568594      1.08e-05  
   10   -1412.1385595154      5.97e-06  
   11   -1412.1385618153      4.95e-06  
   12   -1412.1385647012      4.25e-06  
   13   -1412.1385698951      2.57e-06  
   14   -1412.1385704207      7.61e-07  
   15   -1412.1385704407      8.65e-07  
   16   -1412.1385704426      9.74e-08  
   17   -1412.1385704426      1.00e-08  
   18   -1412.1385704426      5.27e-09  Convergence criterion met
 ---------------------------------------
 SCF time:   CPU 21.70s  wall 2.00s 
<S^2> =          4.793807989
 SCF   energy in the final basis set =    -1412.1385704426
 Total energy in the final basis set =    -1412.1385704426
 
 --------------------------------------------------------------
             Orbital Energies (a.u.) and Symmetries
 --------------------------------------------------------------
 
 Alpha MOs, Unrestricted
 -- Occupied --                  
-257.05  -31.04  -26.92  -26.89  -26.89  -20.24  -20.23   -4.51
  1 A'    2 A'    3 A'    1 A"    4 A'    5 A'    6 A'    7 A'                 
 -3.322  -3.261  -3.260  -2.207  -1.637  -1.406  -1.387  -1.353
  8 A'    9 A'    2 A"   10 A'   11 A'   12 A'    3 A"   13 A'                 
 -1.295  -1.289  -1.289  -1.257  -1.231
 14 A'    4 A"   15 A'   16 A'    5 A"                                         
 -- Virtual --                   
 -0.997  -0.966  -0.867  -0.653  -0.633  -0.605  -0.517  -0.425
  6 A"   17 A'   18 A'   19 A'    7 A"   20 A'   21 A'   22 A'                 
 -0.303  -0.299  -0.296  -0.001   0.023   0.058   0.086   0.152
 23 A'   24 A'    8 A"   25 A'    9 A"   26 A'   27 A'   28 A'                 
  0.168   0.193   0.284   0.469   0.530   0.531   0.567   0.625
 10 A"   29 A'   30 A'   31 A'   11 A"   32 A'   12 A"   33 A'                 
  0.683   0.691   0.732   0.738   1.000   1.133   1.136   1.280
 34 A'   13 A"   14 A"   35 A'   36 A'   37 A'   15 A"   38 A'                 
  1.283   1.295   1.296   1.333   1.357   1.490   1.715   1.788
 16 A"   39 A'   17 A"   40 A'   18 A"   41 A'   42 A'   19 A"                 
  1.903   2.067   2.506   2.837  19.340
 43 A'   44 A'   45 A'   46 A'   47 A'                                         
 
 Beta MOs, Unrestricted
 -- Occupied --                  
-257.05  -30.96  -26.84  -26.83  -26.83  -20.27  -20.24   -4.31
  1 A'    2 A'    3 A'    4 A'    1 A"    5 A'    6 A'    7 A'                 
 -3.076  -3.066  -3.064  -2.238  -1.681  -1.451  -1.420  -1.409
  8 A'    9 A'    2 A"   10 A'   11 A'   12 A'   13 A'    3 A"                 
 -1.158  -1.121
 14 A'    4 A"                                                                 
 -- Virtual --                   
 -1.030  -0.971  -0.964  -0.960  -0.926  -0.839  -0.632  -0.612
  5 A"   15 A'   16 A'    6 A"   17 A'   18 A'   19 A'    7 A"                 
 -0.596  -0.529  -0.418  -0.285  -0.282  -0.279  -0.011   0.018
 20 A'   21 A'   22 A'   23 A'   24 A'    8 A"   25 A'    9 A"                 
  0.047   0.072   0.145   0.155   0.211   0.309   0.497   0.591
 26 A'   27 A'   28 A'   10 A"   29 A'   30 A'   31 A'   11 A"                 
  0.618   0.643   0.647   0.671   0.675   0.745   0.795   1.045
 32 A'   33 A'   12 A"   34 A'   13 A"   14 A"   35 A'   36 A'                 
  1.101   1.132   1.369   1.371   1.380   1.381   1.416   1.424
 15 A"   37 A'   16 A"   38 A'   39 A'   17 A"   18 A"   40 A'                 
  1.532   1.696   1.778   1.894   2.056   2.481   2.816  19.453
 41 A'   42 A'   19 A"   43 A'   44 A'   45 A'   46 A'   47 A'                 
 --------------------------------------------------------------
 
          Ground-State Mulliken Net Atomic Charges

     Atom                 Charge (a.u.)    Spin (a.u.)
  --------------------------------------------------------
      1 O                     0.682161      -0.755090
      2 O                     0.261173      -0.317109
      3 Fe                    2.056666       4.072200
  --------------------------------------------------------
  Sum of atomic charges =     3.000000
  Sum of spin   charges =     3.000000

 -----------------------------------------------------------------
                    Cartesian Multipole Moments
 -----------------------------------------------------------------
    Charge (ESU x 10^10)
                14.4096
    Dipole Moment (Debye)
         X      -2.8179      Y      -0.1952      Z       0.0000
       Tot       2.8247
    Quadrupole Moments (Debye-Ang)
        XX      13.1212     XY      -1.1298     YY     -14.6456
        XZ       0.0000     YZ      -0.0000     ZZ     -15.0070
    Octopole Moments (Debye-Ang^2)
       XXX       3.2823    XXY      -3.0051    XYY      -4.2018
       YYY      -1.7662    XXZ       0.0000    XYZ      -0.0000
       YYZ      -0.0000    XZZ      -3.5164    YZZ      -0.5781
       ZZZ       0.0000
    Hexadecapole Moments (Debye-Ang^3)
      XXXX    -101.6395   XXXY      -5.3347   XXYY     -29.7606
      XYYY       1.3408   YYYY     -12.0141   XXXZ       0.0000
      XXYZ      -0.0000   XYYZ       0.0000   YYYZ      -0.0000
      XXZZ     -29.4180   XYZZ       0.3987   YYZZ      -3.1600
      XZZZ       0.0000   YZZZ      -0.0000   ZZZZ      -7.3077
 -----------------------------------------------------------------
 Calculating analytic gradient of the SCF energy
 Gradient of SCF Energy
            1           2           3
    1   0.0092631  -0.0530699   0.0438068
    2  -0.0174776   0.0150327   0.0024449
    3   0.0000000  -0.0000000   0.0000000
 Max gradient component =       5.307E-02
 RMS gradient           =       2.440E-02
 Gradient time:  CPU 7.71 s  wall 0.69 s
 Geometry Optimization Parameters
   NAtoms,    NIC,     NZ,  NCons,   NDum,   NFix, NCnnct, MaxDiis
        3       9       0       0       0       0       0       0

 Cartesian Hessian Update
 Hessian Updated using BFGS Update


** GEOMETRY OPTIMIZATION IN DELOCALIZED INTERNAL COORDINATES **
   Searching for a Minimum

   Optimization Cycle:   3

                       Coordinates (Angstroms)
     ATOM                X               Y               Z
      1  O         1.9983828670   -0.2507262498    0.0000000000
      2  O         1.0147862580    0.3466568102    0.0000000000
      3  Fe       -1.1043125796    0.0069524171    0.0000000000
   Point Group: cs    Number of degrees of freedom:     3


   Energy is  -1412.138570443

 Hessian Updated using BFGS Update

  3 Hessian modes will be used to form the next step
  Hessian Eigenvalues:
     0.034421    0.277614    1.470643

 Minimum Search - Taking Simple RFO Step
 Searching for Lamda that Minimizes Along All modes
 Value Taken    Lamda =  -0.03501440
 Calculated Step too Large.  Step scaled by  0.423263
 Step Taken.  Stepsize is  0.300000

                             Maximum     Tolerance    Cnvgd?
         Gradient           0.041708      0.000300      NO
         Displacement       0.203987      0.001200      NO
         Energy change     -0.016221      0.000001      NO


 New Cartesian Coordinates Obtained by Inverse Iteration

 Displacement from previous Coordinates is:  0.299168
 ----------------------------------------------------------------
             Standard Nuclear Orientation (Angstroms)
    I     Atom           X                Y                Z
 ----------------------------------------------------------------
    1      O       2.0739676770    -0.2161131845     0.0000000000
    2      O       1.0547000026     0.2931581433     0.0000000000
    3      Fe     -1.2198111342     0.0258380188     0.0000000000
 ----------------------------------------------------------------
 Molecular Point Group                 Cs    NOp =  2
 Largest Abelian Subgroup              Cs    NOp =  2
 Nuclear Repulsion Energy =   111.1123980568 hartrees
 There are       21 alpha and       18 beta electrons
 Applying Cartesian multipole field
    Component          Value
    ---------          -----
     (2,0,0)        1.00000E-11
     (0,2,0)        2.00000E-11
     (0,0,2)       -3.00000E-11
 Nucleus-field energy     =     0.0000000030 hartrees
 Requested basis set is 6-31G(d)
 There are 16 shells and 66 basis functions
 A cutoff of  1.0D-11 yielded    126 shell pairs
 There are      2267 function pairs (      2492 Cartesian)
 Smallest overlap matrix eigenvalue = 1.76E-03
 Guess MOs from SCF MO coefficient file

 -----------------------------------------------------------------------
  General SCF calculation program by
  Eric Jon Sundstrom, Paul Horn, Yuezhi Mao, Dmitri Zuev, Alec White,
  David Stuck, Shaama M.S., Shane Yost, Joonho Lee, David Small,
  Daniel Levine, Susi Lehtola, Hugh Burton, Evgeny Epifanovsky
 -----------------------------------------------------------------------
 Exchange:     0.2000 Hartree-Fock + 0.0800 Slater + 0.7200 B88
 Correlation:  0.1900 VWN1RPA + 0.8100 LYP
 Using SG-1 standard quadrature grid
 using 12 threads for integral computing
 -------------------------------------------------------
 OpenMP Integral computing Module                
 Release: version 1.0, May 2013, Q-Chem Inc. Pittsburgh 
 -------------------------------------------------------
 -------------------------------------------------------
 OpenMP BLAS3 based DFT computing Module                
 Release: version 1.0, May 2013, Q-Chem Inc. Pittsburgh 
 -------------------------------------------------------
 A unrestricted SCF calculation will be
 performed using DIIS
 SCF converges when DIIS error is below 1.0e-08
 ---------------------------------------
  Cycle       Energy         DIIS error
 ---------------------------------------
    1   -1412.1439835428      1.49e-03  
    2   -1412.1516002431      8.59e-04  
    3   -1412.1496600014      1.46e-03  
    4   -1412.1526015238      4.00e-04  
    5   -1412.1528625883      1.18e-04  
    6   -1412.1528972502      3.82e-05  
    7   -1412.1529078093      1.55e-05  
    8   -1412.1529134728      8.70e-06  
    9   -1412.1529156147      4.22e-06  
   10   -1412.1529162560      3.53e-06  
   11   -1412.1529169292      3.31e-06  
   12   -1412.1529185647      2.87e-06  
   13   -1412.1529220734      2.03e-06  
   14   -1412.1529228420      7.41e-07  
   15   -1412.1529228846      1.01e-06  
   16   -1412.1529228887      1.08e-07  
   17   -1412.1529228887      1.84e-08  
   18   -1412.1529228887      3.51e-09  Convergence criterion met
 ---------------------------------------
 SCF time:   CPU 21.54s  wall 2.00s 
<S^2> =          4.766896576
 SCF   energy in the final basis set =    -1412.1529228887
 Total energy in the final basis set =    -1412.1529228887
 
 --------------------------------------------------------------
             Orbital Energies (a.u.) and Symmetries
 --------------------------------------------------------------
 
 Alpha MOs, Unrestricted
 -- Occupied --                  
-257.01  -31.01  -26.89  -26.85  -26.85  -20.23  -20.22   -4.48
  1 A'    2 A'    3 A'    1 A"    4 A'    5 A'    6 A'    7 A'                 
 -3.293  -3.229  -3.227  -2.207  -1.618  -1.392  -1.382  -1.342
  8 A'    9 A'    2 A"   10 A'   11 A'   12 A'    3 A"   13 A'                 
 -1.268  -1.262  -1.260  -1.231  -1.198
 14 A'   15 A'    4 A"   16 A'    5 A"                                         
 -- Virtual --                   
 -0.986  -0.948  -0.863  -0.637  -0.622  -0.606  -0.496  -0.420
  6 A"   17 A'   18 A'   19 A'    7 A"   20 A'   21 A'   22 A'                 
 -0.296  -0.295  -0.288   0.019   0.031   0.056   0.096   0.146
 23 A'   24 A'    8 A"   25 A'    9 A"   26 A'   27 A'   28 A'                 
  0.176   0.205   0.247   0.507   0.553   0.554   0.600   0.660
 10 A"   29 A'   30 A'   31 A'   11 A"   32 A'   12 A"   33 A'                 
  0.700   0.701   0.717   0.723   0.952   1.159   1.160   1.301
 34 A'   13 A"   35 A'   14 A"   36 A'   37 A'   15 A"   38 A'                 
  1.303   1.315   1.318   1.332   1.351   1.448   1.749   1.807
 16 A"   39 A'   17 A"   40 A'   18 A"   41 A'   42 A'   19 A"                 
  1.861   2.087   2.503   2.823  19.368
 43 A'   44 A'   45 A'   46 A'   47 A'                                         
 
 Beta MOs, Unrestricted
 -- Occupied --                  
-257.01  -30.93  -26.81  -26.79  -26.79  -20.25  -20.23   -4.28
  1 A'    2 A'    3 A'    4 A'    1 A"    5 A'    6 A'    7 A'                 
 -3.049  -3.038  -3.036  -2.236  -1.662  -1.440  -1.411  -1.400
  8 A'    9 A'    2 A"   10 A'   11 A'   12 A'   13 A'    3 A"                 
 -1.139  -1.099
 14 A'    4 A"                                                                 
 -- Virtual --                   
 -1.011  -0.946  -0.937  -0.933  -0.899  -0.834  -0.615  -0.601
  5 A"   15 A'   16 A'    6 A"   17 A'   18 A'   19 A'    7 A"                 
 -0.594  -0.510  -0.415  -0.283  -0.274  -0.271   0.003   0.026
 20 A'   21 A'   22 A'   23 A'   24 A'    8 A"   25 A'    9 A"                 
  0.048   0.081   0.141   0.167   0.235   0.257   0.541   0.629
 26 A'   27 A'   28 A'   10 A"   29 A'   30 A'   31 A'   11 A"                 
  0.649   0.668   0.671   0.683   0.684   0.732   0.775   1.021
 32 A'   33 A'   12 A"   13 A"   34 A'   14 A"   35 A'   36 A'                 
  1.122   1.131   1.390   1.390   1.398   1.400   1.419   1.433
 15 A"   37 A'   16 A"   38 A'   17 A"   39 A'   18 A"   40 A'                 
  1.518   1.730   1.799   1.834   2.074   2.479   2.802  19.481
 41 A'   42 A'   19 A"   43 A'   44 A'   45 A'   46 A'   47 A'                 
 --------------------------------------------------------------
 
          Ground-State Mulliken Net Atomic Charges

     Atom                 Charge (a.u.)    Spin (a.u.)
  --------------------------------------------------------
      1 O                     0.679779      -0.672030
      2 O                     0.299443      -0.357683
      3 Fe                    2.020777       4.029713
  --------------------------------------------------------
  Sum of atomic charges =     3.000000
  Sum of spin   charges =     3.000000

 -----------------------------------------------------------------
                    Cartesian Multipole Moments
 -----------------------------------------------------------------
    Charge (ESU x 10^10)
                14.4096
    Dipole Moment (Debye)
         X      -3.2740      Y       0.0546      Z      -0.0000
       Tot       3.2745
    Quadrupole Moments (Debye-Ang)
        XX      16.6938     XY      -1.2552     YY     -14.7161
        XZ       0.0000     YZ       0.0000     ZZ     -14.9348
    Octopole Moments (Debye-Ang^2)
       XXX       3.6481    XXY      -2.5939    XYY      -4.0364
       YYY      -1.8180    XXZ      -0.0000    XYZ      -0.0000
       YYZ       0.0000    XZZ      -2.9389    YZZ      -0.6015
       ZZZ      -0.0000
    Hexadecapole Moments (Debye-Ang^3)
      XXXX    -106.7155   XXXY      -5.0895   XXYY     -33.1688
      XYYY       1.8086   YYYY     -10.7420   XXXZ       0.0000
      XXYZ       0.0000   XYYZ      -0.0000   YYYZ       0.0000
      XXZZ     -32.6681   XYZZ       0.5522   YYZZ      -2.9353
      XZZZ       0.0000   YZZZ       0.0000   ZZZZ      -7.1991
 -----------------------------------------------------------------
 Calculating analytic gradient of the SCF energy
 Gradient of SCF Energy
            1           2           3
    1   0.0042735  -0.0487429   0.0444695
    2  -0.0097822   0.0072178   0.0025644
    3   0.0000000  -0.0000000   0.0000000
 Max gradient component =       4.874E-02
 RMS gradient           =       2.243E-02
 Gradient time:  CPU 7.62 s  wall 0.68 s
 Geometry Optimization Parameters
   NAtoms,    NIC,     NZ,  NCons,   NDum,   NFix, NCnnct, MaxDiis
        3       9       0       0       0       0       0       0

 Cartesian Hessian Update
 Hessian Updated using BFGS Update


** GEOMETRY OPTIMIZATION IN DELOCALIZED INTERNAL COORDINATES **
   Searching for a Minimum

   Optimization Cycle:   4

                       Coordinates (Angstroms)
     ATOM                X               Y               Z
      1  O         2.0739676770   -0.2161131845    0.0000000000
      2  O         1.0547000026    0.2931581433    0.0000000000
      3  Fe       -1.2198111342    0.0258380188    0.0000000000
   Point Group: cs    Number of degrees of freedom:     3


   Energy is  -1412.152922889

 Hessian Updated using BFGS Update

  3 Hessian modes will be used to form the next step
  Hessian Eigenvalues:
     0.007295    0.336185    1.546295

 Minimum Search - Taking Simple RFO Step
 Searching for Lamda that Minimizes Along All modes
 Value Taken    Lamda =  -0.04331108
 Calculated Step too Large.  Step scaled by  0.324420
 Step Taken.  Stepsize is  0.300000

                             Maximum     Tolerance    Cnvgd?
         Gradient           0.036842      0.000300      NO
         Displacement       0.209087      0.001200      NO
         Energy change     -0.014352      0.000001      NO


 New Cartesian Coordinates Obtained by Inverse Iteration

 Displacement from previous Coordinates is:  0.283412
 ----------------------------------------------------------------
             Standard Nuclear Orientation (Angstroms)
    I     Atom           X                Y                Z
 ----------------------------------------------------------------
    1      O       2.1425000222    -0.1856667915     0.0000000000
    2      O       1.0983098794     0.2468889317     0.0000000000
    3      Fe     -1.3319533562     0.0416608373     0.0000000000
 ----------------------------------------------------------------
 Molecular Point Group                 Cs    NOp =  2
 Largest Abelian Subgroup              Cs    NOp =  2
 Nuclear Repulsion Energy =   106.7069654908 hartrees
 There are       21 alpha and       18 beta electrons
 Applying Cartesian multipole field
    Component          Value
    ---------          -----
     (2,0,0)        1.00000E-11
     (0,2,0)        2.00000E-11
     (0,0,2)       -3.00000E-11
 Nucleus-field energy     =     0.0000000034 hartrees
 Requested basis set is 6-31G(d)
 There are 16 shells and 66 basis functions
 A cutoff of  1.0D-11 yielded    124 shell pairs
 There are      2237 function pairs (      2462 Cartesian)
 Smallest overlap matrix eigenvalue = 1.76E-03
 Guess MOs from SCF MO coefficient file

 -----------------------------------------------------------------------
  General SCF calculation program by
  Eric Jon Sundstrom, Paul Horn, Yuezhi Mao, Dmitri Zuev, Alec White,
  David Stuck, Shaama M.S., Shane Yost, Joonho Lee, David Small,
  Daniel Levine, Susi Lehtola, Hugh Burton, Evgeny Epifanovsky
 -----------------------------------------------------------------------
 Exchange:     0.2000 Hartree-Fock + 0.0800 Slater + 0.7200 B88
 Correlation:  0.1900 VWN1RPA + 0.8100 LYP
 Using SG-1 standard quadrature grid
 using 12 threads for integral computing
 -------------------------------------------------------
 OpenMP Integral computing Module                
 Release: version 1.0, May 2013, Q-Chem Inc. Pittsburgh 
 -------------------------------------------------------
 -------------------------------------------------------
 OpenMP BLAS3 based DFT computing Module                
 Release: version 1.0, May 2013, Q-Chem Inc. Pittsburgh 
 -------------------------------------------------------
 A unrestricted SCF calculation will be
 performed using DIIS
 SCF converges when DIIS error is below 1.0e-08
 ---------------------------------------
  Cycle       Energy         DIIS error
 ---------------------------------------
    1   -1412.1601947671      1.29e-03  
    2   -1412.1657318301      7.13e-04  
    3   -1412.1634776114      1.46e-03  
    4   -1412.1665352190      1.75e-04  
    5   -1412.1665865155      5.19e-05  
    6   -1412.1665953598      1.61e-05  
    7   -1412.1665982825      8.45e-06  
    8   -1412.1666000776      4.51e-06  
    9   -1412.1666008779      2.31e-06  
   10   -1412.1666010865      2.12e-06  
   11   -1412.1666013178      2.03e-06  
   12   -1412.1666020001      1.84e-06  
   13   -1412.1666038150      1.19e-06  
   14   -1412.1666045838      5.97e-07  
   15   -1412.1666046146      4.57e-07  
   16   -1412.1666046296      5.39e-08  
   17   -1412.1666046296      2.46e-08  
   18   -1412.1666046296      1.36e-09  Convergence criterion met
 ---------------------------------------
 SCF time:   CPU 21.07s  wall 1.00s 
<S^2> =          4.754159145
 SCF   energy in the final basis set =    -1412.1666046296
 Total energy in the final basis set =    -1412.1666046296
 
 --------------------------------------------------------------
             Orbital Energies (a.u.) and Symmetries
 --------------------------------------------------------------
 
 Alpha MOs, Unrestricted
 -- Occupied --                  
-256.99  -30.98  -26.86  -26.83  -26.83  -20.22  -20.20   -4.45
  1 A'    2 A'    3 A'    4 A'    1 A"    5 A'    6 A'    7 A'                 
 -3.273  -3.206  -3.204  -2.203  -1.598  -1.377  -1.373  -1.331
  8 A'    9 A'    2 A"   10 A'   11 A'   12 A'    3 A"   13 A'                 
 -1.249  -1.242  -1.240  -1.212  -1.176
 14 A'   15 A'    4 A"   16 A'    5 A"                                         
 -- Virtual --                   
 -0.970  -0.929  -0.859  -0.625  -0.612  -0.606  -0.475  -0.412
  6 A"   17 A'   18 A'   19 A'    7 A"   20 A'   21 A'   22 A'                 
 -0.293  -0.289  -0.281   0.038   0.042   0.055   0.100   0.144
 23 A'   24 A'    8 A"   25 A'    9 A"   26 A'   27 A'   28 A'                 
  0.188   0.199   0.250   0.541   0.570   0.570   0.620   0.666
 10 A"   29 A'   30 A'   31 A'   11 A"   32 A'   12 A"   33 A'                 
  0.710   0.710   0.726   0.728   0.895   1.180   1.180   1.317
 34 A'   13 A"   35 A'   14 A"   36 A'   37 A'   15 A"   38 A'                 
  1.318   1.329   1.330   1.335   1.357   1.419   1.780   1.829
 16 A"   39 A'   40 A'   17 A"   18 A"   41 A'   42 A'   19 A"                 
  1.862   2.115   2.506   2.818  19.388
 43 A'   44 A'   45 A'   46 A'   47 A'                                         
 
 Beta MOs, Unrestricted
 -- Occupied --                  
-256.99  -30.90  -26.79  -26.77  -26.77  -20.24  -20.22   -4.26
  1 A'    2 A'    3 A'    4 A'    1 A"    5 A'    6 A'    7 A'                 
 -3.029  -3.017  -3.015  -2.231  -1.642  -1.427  -1.398  -1.389
  8 A'    9 A'    2 A"   10 A'   11 A'   12 A'   13 A'    3 A"                 
 -1.119  -1.082
 14 A'    4 A"                                                                 
 -- Virtual --                   
 -0.992  -0.928  -0.918  -0.914  -0.880  -0.830  -0.602  -0.592
  5 A"   15 A'   16 A'    6 A"   17 A'   18 A'   19 A'    7 A"                 
 -0.592  -0.489  -0.409  -0.280  -0.268  -0.264   0.019   0.037
 20 A'   21 A'   22 A'   23 A'   24 A'    8 A"   25 A'    9 A"                 
  0.048   0.086   0.145   0.180   0.211   0.261   0.580   0.657
 26 A'   27 A'   28 A'   10 A"   29 A'   30 A'   31 A'   11 A"                 
  0.674   0.686   0.687   0.692   0.701   0.730   0.753   0.971
 32 A'   12 A"   33 A'   13 A"   34 A'   14 A"   35 A'   36 A'                 
  1.142   1.145   1.404   1.406   1.410   1.413   1.430   1.435
 15 A"   37 A'   38 A'   16 A"   17 A"   39 A'   18 A"   40 A'                 
  1.504   1.761   1.823   1.827   2.104   2.483   2.797  19.500
 41 A'   42 A'   19 A"   43 A'   44 A'   45 A'   46 A'   47 A'                 
 --------------------------------------------------------------
 
          Ground-State Mulliken Net Atomic Charges

     Atom                 Charge (a.u.)    Spin (a.u.)
  --------------------------------------------------------
      1 O                     0.672487      -0.620667
      2 O                     0.329681      -0.384417
      3 Fe                    1.997831       4.005084
  --------------------------------------------------------
  Sum of atomic charges =     3.000000
  Sum of spin   charges =     3.000000

 -----------------------------------------------------------------
                    Cartesian Multipole Moments
 -----------------------------------------------------------------
    Charge (ESU x 10^10)
                14.4096
    Dipole Moment (Debye)
         X      -3.8605      Y       0.2526      Z       0.0000
       Tot       3.8687
    Quadrupole Moments (Debye-Ang)
        XX      20.2664     XY      -1.3608     YY     -14.7674
        XZ       0.0000     YZ       0.0000     ZZ     -14.8802
    Octopole Moments (Debye-Ang^2)
       XXX       2.7991    XXY      -2.0742    XYY      -3.8809
       YYY      -1.8638    XXZ      -0.0000    XYZ      -0.0000
       YYZ       0.0000    XZZ      -2.4401    YZZ      -0.6261
       ZZZ       0.0000
    Hexadecapole Moments (Debye-Ang^3)
      XXXX    -111.2108   XXXY      -4.7491   XXYY     -36.7262
      XYYY       2.2422   YYYY      -9.8220   XXXZ       0.0000
      XXYZ       0.0000   XYYZ       0.0000   YYYZ       0.0000
      XXZZ     -36.0902   XYZZ       0.7048   YYZZ      -2.7785
      XZZZ       0.0000   YZZZ       0.0000   ZZZZ      -7.1186
 -----------------------------------------------------------------
 Calculating analytic gradient of the SCF energy
 Gradient of SCF Energy
            1           2           3
    1  -0.0048851  -0.0386880   0.0435731
    2  -0.0034528   0.0020252   0.0014276
    3   0.0000000  -0.0000000   0.0000000
 Max gradient component =       4.357E-02
 RMS gradient           =       1.954E-02
 Gradient time:  CPU 7.49 s  wall 0.67 s
 Geometry Optimization Parameters
   NAtoms,    NIC,     NZ,  NCons,   NDum,   NFix, NCnnct, MaxDiis
        3       9       0       0       0       0       0       0

 Cartesian Hessian Update
 Hessian Updated using BFGS Update


** GEOMETRY OPTIMIZATION IN DELOCALIZED INTERNAL COORDINATES **
   Searching for a Minimum

   Optimization Cycle:   5

                       Coordinates (Angstroms)
     ATOM                X               Y               Z
      1  O         2.1425000222   -0.1856667915    0.0000000000
      2  O         1.0983098794    0.2468889317    0.0000000000
      3  Fe       -1.3319533562    0.0416608373    0.0000000000
   Point Group: cs    Number of degrees of freedom:     3


   Energy is  -1412.166604630

 Hessian Updated using BFGS Update

  3 Hessian modes will be used to form the next step
  Hessian Eigenvalues:
     0.007515    0.342477    1.707058

 Minimum Search - Taking Simple RFO Step
 Searching for Lamda that Minimizes Along All modes
 Value Taken    Lamda =  -0.04092779
 Calculated Step too Large.  Step scaled by  0.326564
 Step Taken.  Stepsize is  0.300000

                             Maximum     Tolerance    Cnvgd?
         Gradient           0.028721      0.000300      NO
         Displacement       0.207482      0.001200      NO
         Energy change     -0.013682      0.000001      NO


 New Cartesian Coordinates Obtained by Inverse Iteration

 Displacement from previous Coordinates is:  0.276988
 ----------------------------------------------------------------
             Standard Nuclear Orientation (Angstroms)
    I     Atom           X                Y                Z
 ----------------------------------------------------------------
    1      O       2.2084429134    -0.1569676971     0.0000000000
    2      O       1.1429054620     0.2034440490     0.0000000000
    3      Fe     -1.4424918300     0.0564066256     0.0000000000
 ----------------------------------------------------------------
 Molecular Point Group                 Cs    NOp =  2
 Largest Abelian Subgroup              Cs    NOp =  2
 Nuclear Repulsion Energy =   102.7099430598 hartrees
 There are       21 alpha and       18 beta electrons
 Applying Cartesian multipole field
    Component          Value
    ---------          -----
     (2,0,0)        1.00000E-11
     (0,2,0)        2.00000E-11
     (0,0,2)       -3.00000E-11
 Nucleus-field energy     =     0.0000000037 hartrees
 Requested basis set is 6-31G(d)
 There are 16 shells and 66 basis functions
 A cutoff of  1.0D-11 yielded    123 shell pairs
 There are      2201 function pairs (      2426 Cartesian)
 Smallest overlap matrix eigenvalue = 1.76E-03
 Guess MOs from SCF MO coefficient file

 -----------------------------------------------------------------------
  General SCF calculation program by
  Eric Jon Sundstrom, Paul Horn, Yuezhi Mao, Dmitri Zuev, Alec White,
  David Stuck, Shaama M.S., Shane Yost, Joonho Lee, David Small,
  Daniel Levine, Susi Lehtola, Hugh Burton, Evgeny Epifanovsky
 -----------------------------------------------------------------------
 Exchange:     0.2000 Hartree-Fock + 0.0800 Slater + 0.7200 B88
 Correlation:  0.1900 VWN1RPA + 0.8100 LYP
 Using SG-1 standard quadrature grid
 using 12 threads for integral computing
 -------------------------------------------------------
 OpenMP Integral computing Module                
 Release: version 1.0, May 2013, Q-Chem Inc. Pittsburgh 
 -------------------------------------------------------
 -------------------------------------------------------
 OpenMP BLAS3 based DFT computing Module                
 Release: version 1.0, May 2013, Q-Chem Inc. Pittsburgh 
 -------------------------------------------------------
 A unrestricted SCF calculation will be
 performed using DIIS
 SCF converges when DIIS error is below 1.0e-08
 ---------------------------------------
  Cycle       Energy         DIIS error
 ---------------------------------------
    1   -1412.1747216093      1.20e-03  
    2   -1412.1792710274      6.32e-04  
    3   -1412.1770364618      1.41e-03  
    4   -1412.1799389126      5.22e-05  
    5   -1412.1799462391      2.80e-05  
    6   -1412.1799485182      8.94e-06  
    7   -1412.1799491868      4.29e-06  
    8   -1412.1799495580      2.53e-06  
    9   -1412.1799498175      1.35e-06  
   10   -1412.1799498924      1.15e-06  
   11   -1412.1799499518      1.12e-06  
   12   -1412.1799501510      1.04e-06  
   13   -1412.1799507493      7.93e-07  
   14   -1412.1799512816      3.88e-07  
   15   -1412.1799512851      2.16e-07  
   16   -1412.1799512974      4.27e-08  
   17   -1412.1799512974      6.82e-09  Convergence criterion met
 ---------------------------------------
 SCF time:   CPU 19.73s  wall 2.00s 
<S^2> =          4.751344414
 SCF   energy in the final basis set =    -1412.1799512974
 Total energy in the final basis set =    -1412.1799512974
 
 --------------------------------------------------------------
             Orbital Energies (a.u.) and Symmetries
 --------------------------------------------------------------
 
 Alpha MOs, Unrestricted
 -- Occupied --                  
-256.98  -30.97  -26.85  -26.81  -26.81  -20.20  -20.19   -4.44
  1 A'    2 A'    3 A'    4 A'    1 A"    5 A'    6 A'    7 A'                 
 -3.260  -3.192  -3.190  -2.192  -1.578  -1.360  -1.359  -1.316
  8 A'    9 A'    2 A"   10 A'   11 A'    3 A"   12 A'   13 A'                 
 -1.237  -1.229  -1.227  -1.200  -1.162
 14 A'   15 A'    4 A"   16 A'    5 A"                                         
 -- Virtual --                   
 -0.953  -0.908  -0.857  -0.616  -0.607  -0.605  -0.455  -0.404
  6 A"   17 A'   18 A'   19 A'   20 A'    7 A"   21 A'   22 A'                 
 -0.289  -0.284  -0.276   0.050   0.056   0.063   0.096   0.141
 23 A'   24 A'    8 A"   25 A'    9 A"   26 A'   27 A'   28 A'                 
  0.203   0.207   0.265   0.565   0.580   0.581   0.628   0.648
 10 A"   29 A'   30 A'   31 A'   32 A'   11 A"   12 A"   33 A'                 
  0.722   0.722   0.743   0.753   0.843   1.199   1.199   1.326
 34 A'   13 A"   14 A"   35 A'   36 A'   15 A"   37 A'   38 A'                 
  1.328   1.333   1.336   1.346   1.364   1.393   1.807   1.851
 16 A"   39 A'   40 A'   17 A"   18 A"   41 A'   42 A'   19 A"                 
  1.881   2.142   2.510   2.823  19.399
 43 A'   44 A'   45 A'   46 A'   47 A'                                         
 
 Beta MOs, Unrestricted
 -- Occupied --                  
-256.98  -30.89  -26.77  -26.76  -26.76  -20.22  -20.20   -4.24
  1 A'    2 A'    3 A'    4 A'    1 A"    5 A'    6 A'    7 A'                 
 -3.016  -3.005  -3.002  -2.220  -1.622  -1.412  -1.382  -1.375
  8 A'    9 A'    2 A"   10 A'   11 A'   12 A'   13 A'    3 A"                 
 -1.099  -1.072
 14 A'    4 A"                                                                 
 -- Virtual --                   
 -0.972  -0.917  -0.905  -0.903  -0.868  -0.827  -0.595  -0.590
  5 A"   15 A'   16 A'    6 A"   17 A'   18 A'   19 A'   20 A'                 
 -0.586  -0.469  -0.403  -0.276  -0.263  -0.258   0.036   0.050
  7 A"   21 A'   22 A'   23 A'   24 A'    8 A"   25 A'    9 A"                 
  0.052   0.086   0.147   0.190   0.195   0.281   0.608   0.674
 26 A'   27 A'   28 A'   29 A'   10 A"   30 A'   31 A'   11 A"                 
  0.693   0.696   0.699   0.702   0.717   0.741   0.743   0.918
 32 A'   12 A"   33 A'   13 A"   34 A'   14 A"   35 A'   36 A'                 
  1.161   1.163   1.414   1.417   1.418   1.421   1.438   1.441
 15 A"   37 A'   38 A'   16 A"   17 A"   39 A'   18 A"   40 A'                 
  1.477   1.788   1.844   1.845   2.132   2.488   2.801  19.511
 41 A'   42 A'   43 A'   19 A"   44 A'   45 A'   46 A'   47 A'                 
 --------------------------------------------------------------
 
          Ground-State Mulliken Net Atomic Charges

     Atom                 Charge (a.u.)    Spin (a.u.)
  --------------------------------------------------------
      1 O                     0.661224      -0.594630
      2 O                     0.348915      -0.402179
      3 Fe                    1.989861       3.996809
  --------------------------------------------------------
  Sum of atomic charges =     3.000000
  Sum of spin   charges =     3.000000

 -----------------------------------------------------------------
                    Cartesian Multipole Moments
 -----------------------------------------------------------------
    Charge (ESU x 10^10)
                14.4096
    Dipole Moment (Debye)
         X      -4.6157      Y       0.4237      Z       0.0000
       Tot       4.6351
    Quadrupole Moments (Debye-Ang)
        XX      23.9705     XY      -1.4870     YY     -14.8142
        XZ       0.0000     YZ       0.0000     ZZ     -14.8486
    Octopole Moments (Debye-Ang^2)
       XXX       0.6149    XXY      -1.4398    XYY      -3.7533
       YYY      -1.9172    XXZ      -0.0000    XYZ      -0.0000
       YYZ       0.0000    XZZ      -2.0249    YZZ      -0.6548
       ZZZ       0.0000
    Hexadecapole Moments (Debye-Ang^3)
      XXXX    -114.5665   XXXY      -4.3940   XXYY     -40.4793
      XYYY       2.6950   YYYY      -9.1281   XXXZ       0.0000
      XXYZ       0.0000   XYYZ      -0.0000   YYYZ       0.0000
      XXZZ     -39.7449   XYZZ       0.8724   YYZZ      -2.6670
      XZZZ       0.0000   YZZZ       0.0000   ZZZZ      -7.0713
 -----------------------------------------------------------------
 Calculating analytic gradient of the SCF energy
 Gradient of SCF Energy
            1           2           3
    1  -0.0118093  -0.0330658   0.0448752
    2  -0.0000558  -0.0010561   0.0011119
    3  -0.0000000  -0.0000000   0.0000000
 Max gradient component =       4.488E-02
 RMS gradient           =       1.900E-02
 Gradient time:  CPU 7.36 s  wall 0.65 s
 Geometry Optimization Parameters
   NAtoms,    NIC,     NZ,  NCons,   NDum,   NFix, NCnnct, MaxDiis
        3       9       0       0       0       0       0       0

 Cartesian Hessian Update
 Hessian Updated using BFGS Update
**WARNING** Hereditary positive definiteness endangered


** GEOMETRY OPTIMIZATION IN DELOCALIZED INTERNAL COORDINATES **
   Searching for a Minimum

   Optimization Cycle:   6

                       Coordinates (Angstroms)
     ATOM                X               Y               Z
      1  O         2.2084429134   -0.1569676971    0.0000000000
      2  O         1.1429054620    0.2034440490    0.0000000000
      3  Fe       -1.4424918300    0.0564066256    0.0000000000
   Point Group: cs    Number of degrees of freedom:     3


   Energy is  -1412.179951297

 Hessian Updated using BFGS Update
**WARNING** Hereditary positive definiteness endangered

  3 Hessian modes will be used to form the next step
  Hessian Eigenvalues:
    -0.913974    0.000363    0.607197
**WARNING** Hessian does not have the Desired Local Structure

 Minimum Search - Taking Simple RFO Step
 Searching for Lamda that Minimizes Along All modes
 Value Taken    Lamda =  -0.91423450
 Calculated Step too Large.  Step scaled by  0.005072
 Step Taken.  Stepsize is  0.300000

                             Maximum     Tolerance    Cnvgd?
         Gradient           0.031531      0.000300      NO
         Displacement       0.275596      0.001200      NO
         Energy change     -0.013347      0.000001      NO


 New Cartesian Coordinates Obtained by Inverse Iteration

 Displacement from previous Coordinates is:  0.276556
 ----------------------------------------------------------------
             Standard Nuclear Orientation (Angstroms)
    I     Atom           X                Y                Z
 ----------------------------------------------------------------
    1      O       2.2595884785    -0.2329966709     0.0000000000
    2      O       1.1316573841     0.3063149273     0.0000000000
    3      Fe     -1.4823893172     0.0295647211     0.0000000000
 ----------------------------------------------------------------
 Molecular Point Group                 Cs    NOp =  2
 Largest Abelian Subgroup              Cs    NOp =  2
 Nuclear Repulsion Energy =    98.3039566431 hartrees
 There are       21 alpha and       18 beta electrons
 Applying Cartesian multipole field
    Component          Value
    ---------          -----
     (2,0,0)        1.00000E-11
     (0,2,0)        2.00000E-11
     (0,0,2)       -3.00000E-11
 Nucleus-field energy     =     0.0000000040 hartrees
 Requested basis set is 6-31G(d)
 There are 16 shells and 66 basis functions
 A cutoff of  1.0D-11 yielded    122 shell pairs
 There are      2197 function pairs (      2422 Cartesian)
 Smallest overlap matrix eigenvalue = 1.76E-03
 Guess MOs from SCF MO coefficient file

 -----------------------------------------------------------------------
  General SCF calculation program by
  Eric Jon Sundstrom, Paul Horn, Yuezhi Mao, Dmitri Zuev, Alec White,
  David Stuck, Shaama M.S., Shane Yost, Joonho Lee, David Small,
  Daniel Levine, Susi Lehtola, Hugh Burton, Evgeny Epifanovsky
 -----------------------------------------------------------------------
 Exchange:     0.2000 Hartree-Fock + 0.0800 Slater + 0.7200 B88
 Correlation:  0.1900 VWN1RPA + 0.8100 LYP
 Using SG-1 standard quadrature grid
 using 12 threads for integral computing
 -------------------------------------------------------
 OpenMP Integral computing Module                
 Release: version 1.0, May 2013, Q-Chem Inc. Pittsburgh 
 -------------------------------------------------------
 -------------------------------------------------------
 OpenMP BLAS3 based DFT computing Module                
 Release: version 1.0, May 2013, Q-Chem Inc. Pittsburgh 
 -------------------------------------------------------
 A unrestricted SCF calculation will be
 performed using DIIS
 SCF converges when DIIS error is below 1.0e-08
 ---------------------------------------
  Cycle       Energy         DIIS error
 ---------------------------------------
    1   -1412.1321187723      2.94e-03  
    2   -1412.1565795684      1.12e-03  
    3   -1412.1438230302      3.18e-03  
    4   -1412.1583340111      5.51e-04  
    5   -1412.1588456124      7.49e-05  
    6   -1412.1588711002      4.53e-05  
    7   -1412.1588948378      2.84e-05  
    8   -1412.1589172776      2.50e-05  
    9   -1412.1589577047      1.85e-05  
   10   -1412.1590060524      8.68e-06  
   11   -1412.1590064389      2.03e-06  
   12   -1412.1590066418      1.67e-06  
   13   -1412.1590068032      1.57e-06  
   14   -1412.1590069903      1.51e-06  
   15   -1412.1590083417      1.11e-06  
   16   -1412.1590094691      8.43e-07  
   17   -1412.1590094729      6.39e-07  
   18   -1412.1590095526      2.07e-07  
   19   -1412.1590095528      1.42e-07  
   20   -1412.1590095528      1.93e-08  
   21   -1412.1590095528      4.34e-10  Convergence criterion met
 ---------------------------------------
 SCF time:   CPU 24.00s  wall 2.00s 
<S^2> =          4.782770425
 SCF   energy in the final basis set =    -1412.1590095528
 Total energy in the final basis set =    -1412.1590095528
 
 --------------------------------------------------------------
             Orbital Energies (a.u.) and Symmetries
 --------------------------------------------------------------
 
 Alpha MOs, Unrestricted
 -- Occupied --                  
-256.98  -30.97  -26.85  -26.82  -26.82  -20.20  -20.17   -4.44
  1 A'    2 A'    3 A'    4 A'    1 A"    5 A'    6 A'    7 A'                 
 -3.262  -3.194  -3.193  -2.058  -1.596  -1.328  -1.292  -1.251
  8 A'    9 A'    2 A"   10 A'   11 A'   12 A'    3 A"   13 A'                 
 -1.238  -1.231  -1.229  -1.201  -1.164
 14 A'   15 A'    4 A"   16 A'    5 A"                                         
 -- Virtual --                   
 -0.977  -0.936  -0.857  -0.650  -0.614  -0.604  -0.572  -0.415
  6 A"   17 A'   18 A'   19 A'   20 A'    7 A"   21 A'   22 A'                 
 -0.290  -0.283  -0.274   0.066   0.073   0.078   0.114   0.169
 23 A'   24 A'    8 A"   25 A'   26 A'    9 A"   27 A'   28 A'                 
  0.209   0.214   0.286   0.541   0.580   0.580   0.623   0.627
 29 A'   10 A"   30 A'   31 A'   32 A'   11 A"   12 A"   33 A'                 
  0.691   0.696   0.784   0.791   0.813   1.156   1.156   1.325
 34 A'   13 A"   35 A'   14 A"   36 A'   15 A"   37 A'   38 A'                 
  1.328   1.331   1.336   1.345   1.363   1.381   1.561   1.737
 16 A"   39 A'   40 A'   17 A"   18 A"   41 A'   42 A'   19 A"                 
  1.765   2.140   2.496   2.787  19.398
 43 A'   44 A'   45 A'   46 A'   47 A'                                         
 
 Beta MOs, Unrestricted
 -- Occupied --                  
-256.98  -30.89  -26.77  -26.76  -26.76  -20.22  -20.18   -4.25
  1 A'    2 A'    3 A'    4 A'    1 A"    5 A'    6 A'    7 A'                 
 -3.018  -3.006  -3.004  -2.089  -1.641  -1.354  -1.342  -1.306
  8 A'    9 A'    2 A"   10 A'   11 A'   12 A'   13 A'    3 A"                 
 -1.125  -1.071
 14 A'    4 A"                                                                 
 -- Virtual --                   
 -1.001  -0.918  -0.907  -0.904  -0.869  -0.828  -0.662  -0.589
  5 A"   15 A'   16 A'    6 A"   17 A'   18 A'   19 A'   20 A'                 
 -0.584  -0.564  -0.407  -0.275  -0.262  -0.257   0.052   0.073
  7 A"   21 A'   22 A'   23 A'   24 A'    8 A"   25 A'   26 A'                 
  0.075   0.091   0.174   0.196   0.202   0.297   0.560   0.667
  9 A"   27 A'   28 A'   29 A'   10 A"   30 A'   31 A'   11 A"                 
  0.678   0.698   0.701   0.701   0.723   0.763   0.763   0.883
 32 A'   12 A"   33 A'   13 A"   34 A'   14 A"   35 A'   36 A'                 
  1.117   1.120   1.415   1.416   1.418   1.420   1.438   1.439
 15 A"   37 A'   38 A'   16 A"   17 A"   39 A'   18 A"   40 A'                 
  1.464   1.543   1.728   1.730   2.128   2.472   2.767  19.510
 41 A'   42 A'   43 A'   19 A"   44 A'   45 A'   46 A'   47 A'                 
 --------------------------------------------------------------
 
          Ground-State Mulliken Net Atomic Charges

     Atom                 Charge (a.u.)    Spin (a.u.)
  --------------------------------------------------------
      1 O                     0.688971      -0.765733
      2 O                     0.312244      -0.243034
      3 Fe                    1.998785       4.008767
  --------------------------------------------------------
  Sum of atomic charges =     3.000000
  Sum of spin   charges =     3.000000

 -----------------------------------------------------------------
                    Cartesian Multipole Moments
 -----------------------------------------------------------------
    Charge (ESU x 10^10)
                14.4096
    Dipole Moment (Debye)
         X      -4.8966      Y       0.0645      Z       0.0000
       Tot       4.8970
    Quadrupole Moments (Debye-Ang)
        XX      26.1673     XY      -1.6947     YY     -14.7755
        XZ      -0.0000     YZ      -0.0000     ZZ     -15.0656
    Octopole Moments (Debye-Ang^2)
       XXX       1.7109    XXY      -3.5263    XYY      -3.4727
       YYY      -1.8925    XXZ       0.0000    XYZ      -0.0000
       YYZ      -0.0000    XZZ      -2.2630    YZZ      -0.6141
       ZZZ       0.0000
    Hexadecapole Moments (Debye-Ang^3)
      XXXX    -108.4217   XXXY      -8.5442   XXYY     -41.9756
      XYYY       2.3590   YYYY     -11.2676   XXXZ      -0.0000
      XXYZ      -0.0000   XYYZ       0.0000   YYYZ      -0.0000
      XXZZ     -41.9604   XYZZ       0.7614   YYZZ      -3.0394
      XZZZ      -0.0000   YZZZ      -0.0000   ZZZZ      -7.3292
 -----------------------------------------------------------------
 Calculating analytic gradient of the SCF energy
 Gradient of SCF Energy
            1           2           3
    1   0.1464093  -0.1869190   0.0405098
    2  -0.0758138   0.0741536   0.0016601
    3  -0.0000000  -0.0000000   0.0000000
 Max gradient component =       1.869E-01
 RMS gradient           =       8.773E-02
 Gradient time:  CPU 7.38 s  wall 0.65 s
 Geometry Optimization Parameters
   NAtoms,    NIC,     NZ,  NCons,   NDum,   NFix, NCnnct, MaxDiis
        3       9       0       0       0       0       0       0

 Cartesian Hessian Update
 Hessian Updated using BFGS Update


** GEOMETRY OPTIMIZATION IN DELOCALIZED INTERNAL COORDINATES **
   Searching for a Minimum

   Optimization Cycle:   7

                       Coordinates (Angstroms)
     ATOM                X               Y               Z
      1  O         2.2595884785   -0.2329966709    0.0000000000
      2  O         1.1316573841    0.3063149273    0.0000000000
      3  Fe       -1.4823893172    0.0295647211    0.0000000000
   Point Group: cs    Number of degrees of freedom:     3


   Energy is  -1412.159009553

 Hessian Updated using BFGS Update

  3 Hessian modes will be used to form the next step
  Hessian Eigenvalues:
     0.000362    0.273510    1.058172

 Minimum Search - Taking Simple RFO Step
 Searching for Lamda that Minimizes Along All modes
 Value Taken    Lamda =  -0.06317864
 Calculated Step too Large.  Step scaled by  0.404941
 Step Taken.  Stepsize is  0.300000

                             Maximum     Tolerance    Cnvgd?
         Gradient           0.141168      0.000300      NO
         Displacement       0.232712      0.001200      NO
         Energy change      0.020942      0.000001      NO


 New Cartesian Coordinates Obtained by Inverse Iteration

 Displacement from previous Coordinates is:  0.284483
 ----------------------------------------------------------------
             Standard Nuclear Orientation (Angstroms)
    I     Atom           X                Y                Z
 ----------------------------------------------------------------
    1      O       2.3107947447    -0.1822717816     0.0000000000
    2      O       1.1779560497     0.2333581094     0.0000000000
    3      Fe     -1.5798942490     0.0517966497     0.0000000000
 ----------------------------------------------------------------
 Molecular Point Group                 Cs    NOp =  2
 Largest Abelian Subgroup              Cs    NOp =  2
 Nuclear Repulsion Energy =    96.1307596439 hartrees
 There are       21 alpha and       18 beta electrons
 Applying Cartesian multipole field
    Component          Value
    ---------          -----
     (2,0,0)        1.00000E-11
     (0,2,0)        2.00000E-11
     (0,0,2)       -3.00000E-11
 Nucleus-field energy     =     0.0000000043 hartrees
 Requested basis set is 6-31G(d)
 There are 16 shells and 66 basis functions
 A cutoff of  1.0D-11 yielded    121 shell pairs
 There are      2191 function pairs (      2416 Cartesian)
 Smallest overlap matrix eigenvalue = 1.76E-03
 Guess MOs from SCF MO coefficient file

 -----------------------------------------------------------------------
  General SCF calculation program by
  Eric Jon Sundstrom, Paul Horn, Yuezhi Mao, Dmitri Zuev, Alec White,
  David Stuck, Shaama M.S., Shane Yost, Joonho Lee, David Small,
  Daniel Levine, Susi Lehtola, Hugh Burton, Evgeny Epifanovsky
 -----------------------------------------------------------------------
 Exchange:     0.2000 Hartree-Fock + 0.0800 Slater + 0.7200 B88
 Correlation:  0.1900 VWN1RPA + 0.8100 LYP
 Using SG-1 standard quadrature grid
 using 12 threads for integral computing
 -------------------------------------------------------
 OpenMP Integral computing Module                
 Release: version 1.0, May 2013, Q-Chem Inc. Pittsburgh 
 -------------------------------------------------------
 -------------------------------------------------------
 OpenMP BLAS3 based DFT computing Module                
 Release: version 1.0, May 2013, Q-Chem Inc. Pittsburgh 
 -------------------------------------------------------
 A unrestricted SCF calculation will be
 performed using DIIS
 SCF converges when DIIS error is below 1.0e-08
 ---------------------------------------
  Cycle       Energy         DIIS error
 ---------------------------------------
    1   -1412.1728388091      1.60e-03  
    2   -1412.1823996019      5.36e-04  
    3   -1412.1785665033      1.73e-03  
    4   -1412.1830439634      1.18e-04  
    5   -1412.1830956396      4.62e-05  
    6   -1412.1831339466      3.44e-05  
    7   -1412.1831612181      2.60e-05  
    8   -1412.1831917568      1.49e-05  
    9   -1412.1832029575      3.68e-06  
   10   -1412.1832034653      1.35e-06  
   11   -1412.1832035312      1.20e-06  
   12   -1412.1832035939      1.04e-06  
   13   -1412.1832036754      1.01e-06  
   14   -1412.1832041874      8.22e-07  
   15   -1412.1832050477      6.52e-07  
   16   -1412.1832050544      5.22e-07  
   17   -1412.1832050911      1.01e-07  
   18   -1412.1832050911      1.95e-08  
[...]
             Standard Nuclear Orientation (Angstroms)
    I     Atom           X                Y                Z
 ----------------------------------------------------------------
    1      O       4.7999022301     0.1388621649     0.0000000000
    2      O       3.8366651425    -0.4344638944     0.0000000000
    3      Fe     -6.7277108272     0.3984847070     0.0000000000
 ----------------------------------------------------------------
 Molecular Point Group                 Cs    NOp =  2
 Largest Abelian Subgroup              Cs    NOp =  2
 Nuclear Repulsion Energy =    50.1455693319 hartrees
 There are       21 alpha and       18 beta electrons
 Applying Cartesian multipole field
    Component          Value
    ---------          -----
     (2,0,0)        1.00000E-11
     (0,2,0)        2.00000E-11
     (0,0,2)       -3.00000E-11
 Nucleus-field energy     =     0.0000000532 hartrees
 Requested basis set is 6-31G(d)
 There are 16 shells and 66 basis functions
 A cutoff of  1.0D-11 yielded     80 shell pairs
 There are      1380 function pairs (      1518 Cartesian)
 Smallest overlap matrix eigenvalue = 1.76E-03
 Guess MOs from SCF MO coefficient file

 -----------------------------------------------------------------------
  General SCF calculation program by
  Eric Jon Sundstrom, Paul Horn, Yuezhi Mao, Dmitri Zuev, Alec White,
  David Stuck, Shaama M.S., Shane Yost, Joonho Lee, David Small,
  Daniel Levine, Susi Lehtola, Hugh Burton, Evgeny Epifanovsky
 -----------------------------------------------------------------------
 Exchange:     0.2000 Hartree-Fock + 0.0800 Slater + 0.7200 B88
 Correlation:  0.1900 VWN1RPA + 0.8100 LYP
 Using SG-1 standard quadrature grid
 using 12 threads for integral computing
 -------------------------------------------------------
 OpenMP Integral computing Module                
 Release: version 1.0, May 2013, Q-Chem Inc. Pittsburgh 
 -------------------------------------------------------
 -------------------------------------------------------
 OpenMP BLAS3 based DFT computing Module                
 Release: version 1.0, May 2013, Q-Chem Inc. Pittsburgh 
 -------------------------------------------------------
 A unrestricted SCF calculation will be
 performed using DIIS
 SCF converges when DIIS error is below 1.0e-08
 ---------------------------------------
  Cycle       Energy         DIIS error
 ---------------------------------------
    1   -1412.4076305604      1.12e-04  
    2   -1412.4076742763      2.34e-05  
    3   -1412.4076704917      6.00e-05  
    4   -1412.4076756549      5.26e-06  
    5   -1412.4076757181      1.37e-06  
    6   -1412.4076757251      2.56e-07  
    7   -1412.4076757253      3.25e-08  
    8   -1412.4076757253      1.86e-08  
    9   -1412.4076757254      1.25e-08  
   10   -1412.4076757254      6.79e-09  Convergence criterion met
 ---------------------------------------
 SCF time:   CPU 9.70s  wall 0.00s 
<S^2> =          4.753112594
 SCF   energy in the final basis set =    -1412.4076757254
 Total energy in the final basis set =    -1412.4076757254
 
 --------------------------------------------------------------
             Orbital Energies (a.u.) and Symmetries
 --------------------------------------------------------------
 
 Alpha MOs, Unrestricted
 -- Occupied --                  
-256.86  -30.85  -26.74  -26.70  -26.70  -19.93  -19.93   -4.33
  1 A'    2 A'    3 A'    4 A'    1 A"    5 A'    6 A'    7 A'                 
 -3.150  -3.079  -3.079  -1.942  -1.307  -1.127  -1.117  -1.117
  8 A'    9 A'    2 A"   10 A'   11 A'   12 A'   13 A'    3 A"                 
 -1.109  -1.095  -1.088  -1.064  -1.050
  4 A"   14 A'   15 A'   16 A'    5 A"                                         
 -- Virtual --                   
 -0.754  -0.695  -0.647  -0.511  -0.502  -0.502  -0.293  -0.197
 17 A'    6 A"   18 A'   19 A'   20 A'    7 A"   21 A'   22 A'                 
 -0.190  -0.187  -0.186   0.196   0.264   0.290   0.306   0.318
 23 A'   24 A'    8 A"   25 A'   26 A'    9 A"   27 A'   28 A'                 
  0.355   0.444   0.470   0.682   0.688   0.688   0.707   0.730
 29 A'   10 A"   30 A'   31 A'   32 A'   11 A"   33 A'   12 A"                 
  0.872   0.971   0.971   1.001   1.032   1.432   1.434   1.434
 34 A'   13 A"   35 A'   14 A"   36 A'   37 A'   38 A'   15 A"                 
  1.439   1.452   1.452   1.453   1.470   1.470   2.052   2.111
 39 A'   16 A"   40 A'   17 A"   18 A"   41 A'   42 A'   19 A"                 
  2.142   2.300   2.670   3.041  19.501
 43 A'   44 A'   45 A'   46 A'   47 A'                                         
 
 Beta MOs, Unrestricted
 -- Occupied --                  
-256.86  -30.78  -26.66  -26.64  -26.64  -19.95  -19.95   -4.13
  1 A'    2 A'    3 A'    4 A'    1 A"    5 A'    6 A'    7 A'                 
 -2.906  -2.891  -2.891  -1.970  -1.353  -1.159  -1.123  -1.118
  8 A'    9 A'    2 A"   10 A'   11 A'   12 A'    3 A"   13 A'                 
 -0.960  -0.839
  4 A"   14 A'                                                                 
 -- Virtual --                   
 -0.806  -0.793  -0.793  -0.753  -0.721  -0.714  -0.486  -0.485
 15 A'   16 A'    5 A"   17 A'   18 A'    6 A"   19 A'   20 A'                 
 -0.484  -0.286  -0.214  -0.171  -0.168  -0.166   0.189   0.256
  7 A"   21 A'   22 A'   23 A'   24 A'    8 A"   25 A'   26 A'                 
  0.275   0.283   0.347   0.348   0.423   0.436   0.780   0.800
 27 A'    9 A"   28 A'   29 A'   30 A'   10 A"   11 A"   31 A'                 
  0.809   0.809   0.838   0.858   0.943   0.944   0.997   0.999
 32 A'   12 A"   33 A'   34 A'   13 A"   35 A'   14 A"   36 A'                 
  1.414   1.416   1.525   1.525   1.526   1.527   1.545   1.545
 15 A"   37 A'   16 A"   38 A'   17 A"   39 A'   40 A'   18 A"                 
  1.549   2.034   2.105   2.105   2.288   2.647   3.018  19.613
 41 A'   42 A'   43 A'   19 A"   44 A'   45 A'   46 A'   47 A'                 
 --------------------------------------------------------------
 
          Ground-State Mulliken Net Atomic Charges

     Atom                 Charge (a.u.)    Spin (a.u.)
  --------------------------------------------------------
      1 O                     0.511666      -0.506117
      2 O                     0.488334      -0.493883
      3 Fe                    2.000000       4.000000
  --------------------------------------------------------
  Sum of atomic charges =     3.000000
  Sum of spin   charges =     3.000000

 -----------------------------------------------------------------
                    Cartesian Multipole Moments
 -----------------------------------------------------------------
    Charge (ESU x 10^10)
                14.4096
    Dipole Moment (Debye)
         X     -43.8140      Y       3.1440      Z       0.0000
       Tot      43.9267
    Quadrupole Moments (Debye-Ang)
        XX     510.9470     XY     -27.9693     YY     -12.9752
        XZ       0.0000     YZ       0.0000     ZZ     -14.8317
    Octopole Moments (Debye-Ang^2)
       XXX   -2482.8717    XXY     164.1530    XYY       0.5512
       YYY      -3.8234    XXZ      -0.0000    XYZ      -0.0000
       YYZ       0.0000    XZZ      15.6113    YZZ      -1.7377
       ZZZ       0.0000
    Hexadecapole Moments (Debye-Ang^3)
      XXXX   18620.5120   XXXY   -1106.5046   XXYY    -386.8159
      XYYY      61.4707   YYYY     -18.5353   XXXZ       0.0000
      XXYZ       0.0001   XYYZ      -0.0000   YYYZ       0.0000
      XXZZ    -472.4332   XYZZ      23.2267   YYZZ      -4.3000
      XZZZ       0.0000   YZZZ       0.0000   ZZZZ      -7.0061
 -----------------------------------------------------------------
 Calculating analytic gradient of the SCF energy
 Gradient of SCF Energy
            1           2           3
    1  -0.0028458  -0.0017187   0.0045646
    2  -0.0004372   0.0006782  -0.0002410
    3   0.0000000   0.0000000  -0.0000000
 Max gradient component =       4.565E-03
 RMS gradient           =       1.903E-03
 Gradient time:  CPU 6.40 s  wall 0.58 s
 Geometry Optimization Parameters
   NAtoms,    NIC,     NZ,  NCons,   NDum,   NFix, NCnnct, MaxDiis
        3       9       0       0       0       0       0       0

 Cartesian Hessian Update
 Hessian Updated using BFGS Update


** GEOMETRY OPTIMIZATION IN CARTESIAN COORDINATES **
   Searching for a Minimum

   Optimization Cycle:  49

                       Coordinates (Angstroms)
     ATOM                X               Y               Z
      1  O         4.7999022301    0.1388621649    0.0000000000
      2  O         3.8366651425   -0.4344638944    0.0000000000
      3  Fe       -6.7277108272    0.3984847070    0.0000000000
   Point Group: cs    Number of degrees of freedom:     3


   Energy is  -1412.407675725


 Translations and Rotations Projected Out of Hessian

  3 Hessian modes will be used to form the next step
  Hessian Eigenvalues:
     0.000645    0.351794    4.367022

 Minimum Search - Taking Simple RFO Step
 Searching for Lamda that Minimizes Along All modes
 Value Taken    Lamda =  -0.00529399
 Calculated Step too Large.  Step scaled by  0.317744
 Step Taken.  Stepsize is  0.300000

                             Maximum     Tolerance    Cnvgd?
         Gradient           0.004565      0.000300      NO
         Displacement       0.244344      0.001200      NO
         Energy change     -0.001713      0.000001      NO

 ----------------------------------------------------------------
             Standard Nuclear Orientation (Angstroms)
    I     Atom           X                Y                Z
 ----------------------------------------------------------------
    1      O       4.8622391811     0.1399826195     0.0000000000
    2      O       3.9036295229    -0.4424982669     0.0000000000
    3      Fe     -6.8570121586     0.4053986249     0.0000000000
 ----------------------------------------------------------------
 Molecular Point Group                 Cs    NOp =  2
 Largest Abelian Subgroup              Cs    NOp =  2
 Nuclear Repulsion Energy =    49.7797660520 hartrees
 There are       21 alpha and       18 beta electrons
 Applying Cartesian multipole field
    Component          Value
    ---------          -----
     (2,0,0)        1.00000E-11
     (0,2,0)        2.00000E-11
     (0,0,2)       -3.00000E-11
 Nucleus-field energy     =     0.0000000552 hartrees
 Requested basis set is 6-31G(d)
 There are 16 shells and 66 basis functions
 A cutoff of  1.0D-11 yielded     80 shell pairs
 There are      1380 function pairs (      1518 Cartesian)
 Smallest overlap matrix eigenvalue = 1.76E-03
 Guess MOs from SCF MO coefficient file

 -----------------------------------------------------------------------
  General SCF calculation program by
  Eric Jon Sundstrom, Paul Horn, Yuezhi Mao, Dmitri Zuev, Alec White,
  David Stuck, Shaama M.S., Shane Yost, Joonho Lee, David Small,
  Daniel Levine, Susi Lehtola, Hugh Burton, Evgeny Epifanovsky
 -----------------------------------------------------------------------
 Exchange:     0.2000 Hartree-Fock + 0.0800 Slater + 0.7200 B88
 Correlation:  0.1900 VWN1RPA + 0.8100 LYP
 Using SG-1 standard quadrature grid
 using 12 threads for integral computing
 -------------------------------------------------------
 OpenMP Integral computing Module                
 Release: version 1.0, May 2013, Q-Chem Inc. Pittsburgh 
 -------------------------------------------------------
 -------------------------------------------------------
 OpenMP BLAS3 based DFT computing Module                
 Release: version 1.0, May 2013, Q-Chem Inc. Pittsburgh 
 -------------------------------------------------------
 A unrestricted SCF calculation will be
 performed using DIIS
 SCF converges when DIIS error is below 1.0e-08
 ---------------------------------------
  Cycle       Energy         DIIS error
 ---------------------------------------
    1   -1412.4092459843      1.50e-04  
    2   -1412.4093258249      2.64e-05  
    3   -1412.4093225818      6.10e-05  
    4   -1412.4093279082      6.88e-06  
    5   -1412.4093280217      1.47e-06  
    6   -1412.4093280296      3.27e-07  
    7   -1412.4093280299      3.42e-08  
    8   -1412.4093280299      1.55e-08  
    9   -1412.4093280299      1.21e-08  
   10   -1412.4093280299      8.93e-09  Convergence criterion met
 ---------------------------------------
 SCF time:   CPU 9.70s  wall 1.00s 
<S^2> =          4.753114812
 SCF   energy in the final basis set =    -1412.4093280299
 Total energy in the final basis set =    -1412.4093280299
 
 --------------------------------------------------------------
             Orbital Energies (a.u.) and Symmetries
 --------------------------------------------------------------
 
 Alpha MOs, Unrestricted
 -- Occupied --                  
-256.86  -30.85  -26.73  -26.70  -26.70  -19.93  -19.93   -4.33
  1 A'    2 A'    3 A'    4 A'    1 A"    5 A'    6 A'    7 A'                 
 -3.149  -3.078  -3.078  -1.939  -1.306  -1.126  -1.117  -1.117
  8 A'    9 A'    2 A"   10 A'   11 A'   12 A'   13 A'    3 A"                 
 -1.106  -1.093  -1.087  -1.062  -1.049
  4 A"   14 A'   15 A'   16 A'    5 A"                                         
 -- Virtual --                   
 -0.753  -0.694  -0.645  -0.511  -0.502  -0.501  -0.292  -0.196
 17 A'    6 A"   18 A'   19 A'   20 A'    7 A"   21 A'   22 A'                 
 -0.189  -0.187  -0.185   0.198   0.266   0.292   0.307   0.320
 23 A'   24 A'    8 A"   25 A'   26 A'    9 A"   27 A'   28 A'                 
  0.357   0.446   0.471   0.683   0.689   0.689   0.708   0.731
 29 A'   10 A"   30 A'   31 A'   32 A'   11 A"   33 A'   12 A"                 
  0.874   0.973   0.973   1.002   1.033   1.433   1.435   1.435
 34 A'   13 A"   35 A'   14 A"   36 A'   37 A'   38 A'   15 A"                 
  1.440   1.453   1.453   1.454   1.471   1.471   2.053   2.112
 39 A'   16 A"   40 A'   17 A"   18 A"   41 A'   42 A'   19 A"                 
  2.143   2.301   2.671   3.042  19.502
 43 A'   44 A'   45 A'   46 A'   47 A'                                         
 
 Beta MOs, Unrestricted
 -- Occupied --                  
-256.86  -30.78  -26.66  -26.64  -26.64  -19.95  -19.95   -4.13
  1 A'    2 A'    3 A'    4 A'    1 A"    5 A'    6 A'    7 A'                 
 -2.905  -2.891  -2.890  -1.967  -1.352  -1.157  -1.121  -1.116
  8 A'    9 A'    2 A"   10 A'   11 A'   12 A'    3 A"   13 A'                 
 -0.959  -0.838
  4 A"   14 A'                                                                 
 -- Virtual --                   
 -0.805  -0.792  -0.792  -0.752  -0.720  -0.713  -0.486  -0.484
 15 A'   16 A'    5 A"   17 A'   18 A'    6 A"   19 A'   20 A'                 
 -0.483  -0.285  -0.214  -0.170  -0.167  -0.165   0.191   0.258
  7 A"   21 A'   22 A'   23 A'   24 A'    8 A"   25 A'   26 A'                 
  0.277   0.285   0.348   0.350   0.425   0.438   0.781   0.801
 27 A'    9 A"   28 A'   29 A'   30 A'   10 A"   11 A"   31 A'                 
  0.810   0.810   0.839   0.860   0.945   0.946   0.998   1.000
 32 A'   12 A"   33 A'   34 A'   13 A"   35 A'   14 A"   36 A'                 
  1.415   1.417   1.526   1.526   1.526   1.528   1.546   1.546
 15 A"   37 A'   16 A"   38 A'   17 A"   39 A'   40 A'   18 A"                 
  1.549   2.034   2.106   2.106   2.289   2.649   3.020  19.613
 41 A'   42 A'   43 A'   19 A"   44 A'   45 A'   46 A'   47 A'                 
 --------------------------------------------------------------
 
          Ground-State Mulliken Net Atomic Charges

     Atom                 Charge (a.u.)    Spin (a.u.)
  --------------------------------------------------------
      1 O                     0.511220      -0.505889
      2 O                     0.488780      -0.494111
      3 Fe                    2.000000       4.000000
  --------------------------------------------------------
  Sum of atomic charges =     3.000000
  Sum of spin   charges =     3.000000

 -----------------------------------------------------------------
                    Cartesian Multipole Moments
 -----------------------------------------------------------------
    Charge (ESU x 10^10)
                14.4096
    Dipole Moment (Debye)
         X     -44.7486      Y       3.1932      Z       0.0000
       Tot      44.8624
    Quadrupole Moments (Debye-Ang)
        XX     530.4901     XY     -29.0300     YY     -12.9041
        XZ       0.0000     YZ       0.0000     ZZ     -14.8332
    Octopole Moments (Debye-Ang^2)
       XXX   -2635.9664    XXY     173.4167    XYY       0.4123
       YYY      -3.8545    XXZ      -0.0000    XYZ      -0.0000
       YYZ       0.0000    XZZ      16.0436    YZZ      -1.7612
       ZZZ       0.0000
    Hexadecapole Moments (Debye-Ang^3)
      XXXX   20179.0883   XXXY   -1195.7773   XXYY    -397.5613
      XYYY      63.6788   YYYY     -18.9162   XXXZ       0.0000
      XXYZ       0.0001   XYYZ      -0.0000   YYYZ       0.0000
      XXZZ    -489.4043   XYZZ      24.1179   YYZZ      -4.3679
      XZZZ       0.0000   YZZZ       0.0000   ZZZZ      -7.0078
 -----------------------------------------------------------------
 Calculating analytic gradient of the SCF energy
 Gradient of SCF Energy
            1           2           3
    1  -0.0012220  -0.0031866   0.0044086
    2   0.0005030  -0.0002702  -0.0002328
    3   0.0000000   0.0000000  -0.0000000
 Max gradient component =       4.409E-03
 RMS gradient           =       1.870E-03
 Gradient time:  CPU 6.44 s  wall 0.58 s
 Geometry Optimization Parameters
   NAtoms,    NIC,     NZ,  NCons,   NDum,   NFix, NCnnct, MaxDiis
        3       9       0       0       0       0       0       0

 Cartesian Hessian Update
 Hessian Updated using BFGS Update


** GEOMETRY OPTIMIZATION IN CARTESIAN COORDINATES **
   Searching for a Minimum

   Optimization Cycle:  50

                       Coordinates (Angstroms)
     ATOM                X               Y               Z
      1  O         4.8622391811    0.1399826195    0.0000000000
      2  O         3.9036295229   -0.4424982669    0.0000000000
      3  Fe       -6.8570121586    0.4053986249    0.0000000000
   Point Group: cs    Number of degrees of freedom:     3


   Energy is  -1412.409328030


 Translations and Rotations Projected Out of Hessian

  3 Hessian modes will be used to form the next step
  Hessian Eigenvalues:
     0.000628    0.366933    4.459389

 Minimum Search - Taking Simple RFO Step
 Searching for Lamda that Minimizes Along All modes
 Value Taken    Lamda =  -0.00511087
 Calculated Step too Large.  Step scaled by  0.317948
 Step Taken.  Stepsize is  0.300000

                             Maximum     Tolerance    Cnvgd?
         Gradient           0.004409      0.000300      NO
         Displacement       0.244440      0.001200      NO
         Energy change     -0.001652      0.000001      NO

 ----------------------------------------------------------------
             Standard Nuclear Orientation (Angstroms)
    I     Atom           X                Y                Z
 ----------------------------------------------------------------
    1      O       4.9245547464     0.1400124990     0.0000000000
    2      O       3.9706660265    -0.4493500661     0.0000000000
    3      Fe     -6.9863642275     0.4122205447     0.0000000000
 ----------------------------------------------------------------
 Molecular Point Group                 Cs    NOp =  2
 Largest Abelian Subgroup              Cs    NOp =  2
 Nuclear Repulsion Energy =    49.4575633969 hartrees
 There are       21 alpha and       18 beta electrons

                       Distance Matrix (Angstroms)
             O (  1)   O (  2)
   O (  2)  1.121272
   Fe(  3) 11.914029 10.990851
 


 *******************************************
 **  MAXIMUM OPTIMIZATION CYCLES REACHED  **
 *******************************************

 Q-Chem fatal error occurred in module 0, line  456:

 Maximum optimization cycles reached

