
Running Job 1 of 1 sys_2_car_1_diox_opt_sto3g_gga.in
qchem sys_2_car_1_diox_opt_sto3g_gga.in_24527.0 /scr/c295_lal/157313/qchem24527/ 1
/usr/software/qchem_511/exe/qcprog.exe_s sys_2_car_1_diox_opt_sto3g_gga.in_24527.0 /scr/c295_lal/157313/qchem24527/
Check license passed

                  Welcome to Q-Chem
     A Quantum Leap Into The Future Of Chemistry


 Q-Chem 5.1, Q-Chem, Inc., Pleasanton, CA (2018)

 Yihan Shao,  Zhengting Gan,  E. Epifanovsky,  A. T. B. Gilbert,  M. Wormit,  
 J. Kussmann,  A. W. Lange,  A. Behn,  Jia Deng,  Xintian Feng,  D. Ghosh,  
 M. Goldey,  P. R. Horn,  L. D. Jacobson,  I. Kaliman,  T. Kus,  A. Landau,  
 Jie Liu,  E. I. Proynov,  R. M. Richard,  R. P. Steele,  E. J. Sundstrom,  
 H. L. Woodcock III,  P. M. Zimmerman,  D. Zuev,  B. Albrecht,  E. Alguire,  
 S. A. Baeppler,  D. Barton,  Z. Benda,  Y. A. Bernard,  E. J. Berquist,  
 K. B. Bravaya,  H. Burton,  D. Casanova,  Chun-Min Chang,  Yunqing Chen,  
 A. Chien,  K. D. Closser,  M. P. Coons,  S. Coriani,  S. Dasgupta,  
 A. L. Dempwolff,  M. Diedenhofen,  Hainam Do,  R. G. Edgar,  Po-Tung Fang,  
 S. Faraji,  S. Fatehi,  Qingguo Feng,  K. D. Fenk,  J. Fosso-Tande,  
 Qinghui Ge,  A. Ghysels,  G. Gidofalvi,  J. Gomes,  J. Gonthier,  A. Gunina,  
 D. Hait,  M. W. D. Hanson-Heine,  P. H. P. Harbach,  A. W. Hauser,  
 J. E. Herr,  E. G. Hohenstein,  Z. C. Holden,  Kerwin Hui,  B. C. Huynh,  
 T.-C. Jagau,  Hyunjun Ji,  B. Kaduk,  K. Khistyaev,  Jaehoon Kim,  
 P. Klunzinger,  K. Koh,  D. Kosenkov,  L. Koulias,  T. Kowalczyk,  
 C. M. Krauter,  A. Kunitsa,  Ka Un Lao,  A. Laurent,  K. V. Lawler,  
 Joonho Lee,  D. Lefrancois,  S. Lehtola,  D. S. Levine,  Yi-Pei Li,  
 You-Sheng Lin,  Fenglai Liu,  E. Livshits,  A. Luenser,  P. Manohar,  
 E. Mansoor,  S. F. Manzer,  Shan-Ping Mao,  Yuezhi Mao,  N. Mardirossian,  
 A. V. Marenich,  T. Markovich,  L. A. Martinez-Martinez,  S. A. Maurer,  
 N. J. Mayhall,  S. C. McKenzie,  J.-M. Mewes,  A. F. Morrison,  
 J. W. Mullinax,  K. Nanda,  T. S. Nguyen-Beck,  R. Olivares-Amaya,  
 J. A. Parkhill,  T. M. Perrine,  F. Plasser,  P. Pokhilko,  S. Prager,  
 A. Prociuk,  E. Ramos,  D. R. Rehn,  F. Rob,  M. Schneider,  N. Sergueev,  
 S. M. Sharada,  S. Sharma,  D. W. Small,  T. Stauch,  T. Stein,  
 Yu-Chuan Su,  A. J. W. Thom,  A. Tkatchenko,  T. Tsuchimochi,  N. M. Tubman,  
 L. Vogt,  M. L. Vidal,  O. Vydrov,  M. A. Watson,  J. Wenzel,  
 M. de Wergifosse,  T. A. Wesolowski,  A. White,  J. Witte,  A. Yamada,  
 Jun Yang,  K. Yao,  S. Yeganeh,  S. R. Yost,  Zhi-Qiang You,  A. Zech,  
 Igor Ying Zhang,  Xing Zhang,  Yan Zhao,  Ying Zhu,  B. R. Brooks,  
 G. K. L. Chan,  C. J. Cramer,  M. S. Gordon,  W. J. Hehre,  A. Klamt,  
 M. W. Schmidt,  C. D. Sherrill,  D. G. Truhlar,  A. Aspuru-Guzik,  R. Baer,  
 A. T. Bell,  N. A. Besley,  Jeng-Da Chai,  A. E. DePrince, III,  
 R. A. DiStasio Jr.,  A. Dreuw,  B. D. Dunietz,  T. R. Furlani,  
 Chao-Ping Hsu,  Yousung Jung,  Jing Kong,  D. S. Lambrecht,  WanZhen Liang,  
 C. Ochsenfeld,  V. A. Rassolov,  L. V. Slipchenko,  J. E. Subotnik,  
 T. Van Voorhis,  J. M. Herbert,  A. I. Krylov,  P. M. W. Gill,  M. Head-Gordon

 Contributors to earlier versions of Q-Chem not listed above: 
 R. D. Adamson,  B. Austin,  J. Baker,  G. J. O. Beran,  K. Brandhorst,  
 S. T. Brown,  E. F. C. Byrd,  A. K. Chakraborty,  C.-L. Cheng,  
 Siu Hung Chien,  D. M. Chipman,  D. L. Crittenden,  H. Dachsel,  
 R. J. Doerksen,  A. D. Dutoi,  L. Fusti-Molnar,  W. A. Goddard III,  
 A. Golubeva-Zadorozhnaya,  S. R. Gwaltney,  G. Hawkins,  A. Heyden,  
 S. Hirata,  G. Kedziora,  F. J. Keil,  C. Kelley,  Jihan Kim,  R. A. King,  
 R. Z. Khaliullin,  P. P. Korambath,  W. Kurlancheek,  A. M. Lee,  M. S. Lee,  
 S. V. Levchenko,  Ching Yeh Lin,  D. Liotard,  R. C. Lochan,  I. Lotan,  
 P. E. Maslen,  N. Nair,  D. P. O'Neill,  D. Neuhauser,  E. Neuscamman,  
 C. M. Oana,  R. Olson,  B. Peters,  R. Peverati,  P. A. Pieniazek,  
 Y. M. Rhee,  J. Ritchie,  M. A. Rohrdanz,  E. Rosta,  N. J. Russ,  
 H. F. Schaefer III,  N. E. Schultz,  N. Shenvi,  A. C. Simmonett,  A. Sodt,  
 D. Stuck,  K. S. Thanthiriwatte,  V. Vanovschi,  Tao Wang,  A. Warshel,  
 C. F. Williams,  Q. Wu,  X. Xu,  W. Zhang

 Please cite Q-Chem as follows:
 Y. Shao et al., Mol. Phys. 113, 184-215 (2015)
 DOI: 10.1080/00268976.2014.952696

 Q-Chem 5.1.1 for Intel X86 EM64T Linux

 Parts of Q-Chem use Armadillo 8.300.2 (Tropical Shenanigans).
 http://arma.sourceforge.net/

 Q-Chem begins on Tue Nov 27 22:49:30 2018  

Host: cub-0-3.local
0

     Scratch files written to /scr/c295_lal/157313/qchem24527//
 Aug318 |scratch|qcdevops|jenkins|workspace|build_RNUM -1
Processing $rem in /usr/software/qchem_511/config/preferences.
 MEM_TOTAL  2000 
Input Ideriv = 2
Curr. Ideriv = -1
Max.  Ideriv = 2

Checking the input file for inconsistencies... 	...done.

--------------------------------------------------------------
User input:
--------------------------------------------------------------
$molecule
2 5
Fe         0.29287       -0.25576        0.08878
H         -4.04064       -5.89730        2.78914
H         -3.40022       -3.37626        2.96365
H         -3.26263       -5.68246        4.35088
C         -3.06527       -6.00113        3.30995
C         -2.32501       -3.60597        3.08272
H         -3.42346       -8.12847        3.56241
H         -2.09939       -3.44819        4.15443
C         -2.60410       -7.45399        3.26389
C         -2.07631       -5.03950        2.69403
H         -1.76367       -2.88245        2.48193
H         -2.95493       -7.57268        1.14566
C         -2.12613       -7.77259        1.85259
H         -1.78682       -7.61214        3.99220
C         -1.07370       -5.46018        1.87301
H         -1.86740       -8.84026        1.74163
O         -0.52168       -3.30639        0.65142
H         -1.65507       -6.50901       -0.59059
C         -0.90711       -6.92333        1.43099
C         -0.80288       -7.01726       -0.10777
C         -0.01818       -4.53386        1.36315
H          0.29970       -3.40983        3.24098
O          0.64361       -2.50006        1.34136
C          0.82204       -3.63532        2.29587
H         -0.81570       -8.07828       -0.41292
C          0.37945       -7.50499        2.05601
H          0.30788       -7.54530        3.15595
H          0.12639       -6.57709       -0.50220
H          0.66542       -5.04916        0.67390
H          0.56360       -8.52835        1.68439
H          1.80314       -5.52393        4.00504
C          2.24879       -3.99343        2.54669
H          2.30582       -3.97824        4.70489
H          1.26488       -6.89557        1.80134
C          2.49427       -4.67195        3.86375
H          2.84651       -3.20628        0.69742
C          3.18961       -3.71661        1.60371
H          3.51881       -5.05440        3.96685
C          4.60811       -4.00223        1.68014
H          4.98594       -4.48393        2.58792
H          5.15028       -3.21763       -0.23117
C          5.48188       -3.70095        0.69339
H          6.54727       -3.92683        0.77746
$end

$rem
BASIS = STO-3G
METHOD  = BLYP
JOBTYPE = OPT
MAX_SCF_CYCLES = 500
SCF_ALGORITHM = DIIS_GDM
$end
--------------------------------------------------------------
 ----------------------------------------------------------------
             Standard Nuclear Orientation (Angstroms)
    I     Atom           X                Y                Z
 ----------------------------------------------------------------
    1      Fe      3.4377452441     2.6499476290    -0.3933446410
    2      H      -4.1045243702     2.2074238201     0.5102970831
    3      H      -1.8655117226     3.2049942691     1.3979398948
    4      H      -3.8245247313     1.4888698601     2.0900970775
    5      C      -3.6956004401     1.3023187539     1.0072240400
    6      C      -1.3942265976     2.2076486494     1.4767620930
    7      H      -5.5648515064     0.2565776070     0.6467555833
    8      H      -1.3865974743     1.9616704362     2.5555566758
    9      C      -4.4809549551     0.0703593331     0.5700790486
   10      C      -2.2174889076     1.2061771154     0.7104502749
   11      H      -0.3639244705     2.2992574068     1.1167374098
   12      H      -4.2926439441     0.5990584330    -1.5057541727
   13      C      -4.0903349606    -0.2783222451    -0.8608528672
   14      H      -4.2596826827    -0.7760570503     1.2468444173
   15      C      -1.7139643486     0.2949001704    -0.1683612310
   16      H      -4.6994241958    -1.1091378826    -1.2582547337
   17      O       0.5226408410     1.3545265687    -0.7256840230
   18      H      -2.2824135324     0.4943523019    -2.8412706531
   19      C      -2.5980455985    -0.6521168413    -0.9963110809
   20      C      -2.2430780237    -0.5532670084    -2.4968762434
   21      C      -0.2455006582     0.1090563128    -0.3714003476
   22      H       0.3517887879     0.2512100757     1.7531641418
   23      O       1.6893275143     0.8254758578     0.1924845935
   24      C       0.7304518603    -0.1476534301     0.7969006273
   25      H      -2.9711064994    -1.1379770064    -3.0860562431
   26      C      -2.3758709723    -2.1054212432    -0.5243367800
   27      H      -2.7079300540    -2.2433669239     0.5184109939
   28      H      -1.2429777076    -0.9522993459    -2.7280470420
   29      H      -0.0423170518    -0.6305113665    -1.1585881793
   30      H      -2.9374274221    -2.8110038265    -1.1615854821
   31      H      -0.4663968982    -2.3198437275     1.9369924623
   32      C       1.2943513359    -1.5176189021     0.9757329342
   33      H       0.8362754264    -1.8855314275     3.0532596444
   34      H      -1.3095631109    -2.3893672983    -0.5753074836
   35      C       0.6331487412    -2.3227437273     2.0573437740
   36      H       2.6869181927    -1.2235781754    -0.5640629791
   37      C       2.3081568745    -1.9399531093     0.1727291904
   38      H       0.9626419517    -3.3704230530     2.0768906111
   39      C       2.9617865095    -3.2327576019     0.2041524865
   40      H       2.6256894016    -3.9591801726     0.9512829370
   41      H       4.3323268518    -2.8872986655    -1.3973869849
   42      C       3.9622666967    -3.5811670861    -0.6358293230
   43      H       4.4384742396    -4.5631308972    -0.5897984509
 ----------------------------------------------------------------
 Molecular Point Group                 C1    NOp =  1
 Largest Abelian Subgroup              C1    NOp =  1
 Nuclear Repulsion Energy =  1745.4354159697 hartrees
 There are       82 alpha and       78 beta electrons
 Requested basis set is STO-3G
 There are 65 shells and 132 basis functions

 Total QAlloc Memory Limit   2000 MB
 Mega-Array Size       188 MB
 MEM_STATIC part       192 MB
 A cutoff of  1.0D-12 yielded   1689 shell pairs
 There are      7408 function pairs (      7492 Cartesian)
 
 -------------------------------------------------------
 OpenMP Integral Computing Module                       
 Release: version 1.0, May 2013, Q-Chem Inc. Pittsburgh 
 -------------------------------------------------------
 Integral Job Info:
 Integral job number is                      11
 Integral operator is                         1
 short-range coefficients                     0
 long-range coefficients              100000000
 Omega coefficients                           0
 if combine SR and LR in K                    0
 Integral screening is                        0
 Integral computing path is                   2
 max size of driver memory is            800000
 size of driver memory is                593474
 size of scratch memory is             10861360
 max col of scratch BK array               1296
 max len of scratch array in speh3          155
 max len of scratch index in speh4           18
 max int batch size is                      520
 min int batch size is                       52
 fixed nKL is                                52
 max L of basis functions is                  2
 order of int derivative is                   0
 number of shells is                         65
 number of basis is                         133
 number of cartesian basis is               133
 number of contracted shell pairs          1689
 number of primitive shell pairs           9014
 maxK2 (contraction) of shell pair            9
 max number of K2 of shell pair               1
 max number of CS2 of shell pair            233
 max number of PS2 of shell pair           1080
 mem total for path MDJ                  534602
 -------------------------------------------------------
 Smallest overlap matrix eigenvalue = 1.90E-01

 Scale SEOQF with 1.000000e-02/1.000000e-01/1.000000e-01

 Standard Electronic Orientation quadrupole field applied
 Nucleus-field energy     =     0.0000000270 hartrees
 Guess from superposition of atomic densities
 Warning:  Energy on first SCF cycle will be non-variational
 SAD guess density has 162.000000 electrons

 -----------------------------------------------------------------------
  General SCF calculation program by
  Eric Jon Sundstrom, Paul Horn, Yuezhi Mao, Dmitri Zuev, Alec White,
  David Stuck, Shaama M.S., Shane Yost, Joonho Lee, David Small,
  Daniel Levine, Susi Lehtola, Hugh Burton, Evgeny Epifanovsky
 -----------------------------------------------------------------------
 Exchange:  B88      Correlation:  LYP
 Using SG-1 standard quadrature grid
 using 8 threads for integral computing
 -------------------------------------------------------
 OpenMP Integral computing Module                
 Release: version 1.0, May 2013, Q-Chem Inc. Pittsburgh 
 -------------------------------------------------------
 -------------------------------------------------------
 OpenMP BLAS3 based DFT computing Module                
 Release: version 1.0, May 2013, Q-Chem Inc. Pittsburgh 
 -------------------------------------------------------
 A unrestricted SCF calculation will be
 performed using DIIS, GDM
 SCF converges when RMS gradient is below 1.0e-08
 ---------------------------------------
  Cycle       Energy         DIIS error
 ---------------------------------------
    1   -2012.1695244096      3.96e-02  
    2   -2012.7486089237      6.24e-03  Done DIIS. Switching to GDM
 ---------------------------------------
  Cycle       Energy        RMS Gradient
 ---------------------------------------
    1   -2012.7486089237      4.54e-01   Descent step
    2   -2013.1779593722      2.36e-01   Descent step
    3   -2013.2863765630      3.12e-01   Descent step
    4   -2013.3722039405      2.94e-01   Descent step
    5   -2013.3194873272      4.84e-01  Line search: overstep
    6   -2013.4379157585      1.04e-01   Descent step
    7   -2013.4953873495      3.52e-01   Descent step
    8   -2013.3969828871      6.12e-01  Line search: overstep
    9   -2013.5552375335      1.16e-01   Descent step
   10   -2013.6110284692      2.66e-01   Descent step
   11   -2013.5754653794      6.76e-01  Line search: overstep
   12   -2013.6754694387      1.53e-01   Descent step
   13   -2013.6428261943      5.57e-01  Line search: overstep
   14   -2013.7075015719      1.14e-01   Descent step
   15   -2013.7312552242      1.86e-01   Descent step
   16   -2013.6810893838      3.47e-01  Line search: overstep
   17   -2013.7898169352      2.36e-01   Dog-leg BFGS step
   18   -2013.8125910598      5.13e-01   Descent step
   19   -2013.7988544493      4.17e-01  Line search: overstep
   20   -2013.8613812449      3.72e-01   Descent step
   21   -2013.8808087449      2.05e-01   Descent step
   22   -2013.8324903742      4.76e-01  Line search: overstep
   23   -2013.8996213644      9.45e-02   Normal BFGS step
   24   -2013.9016219056      6.97e-02   Normal BFGS step
   25   -2013.8985485790      5.91e-02  Line search: overstep
   26   -2013.9063114000      3.05e-02   Normal BFGS step
   27   -2013.9054260856      3.84e-02  Line search: overstep
   28   -2013.9093556948      1.70e-02   Normal BFGS step
   29   -2013.9094382199      1.57e-02   Normal BFGS step
   30   -2013.9101199299      1.18e-02   Normal BFGS step
   31   -2013.9101090353      7.73e-03  Line search: overstep
   32   -2013.9103457550      6.83e-03   Normal BFGS step
   33   -2013.9104349422      4.33e-03   Normal BFGS step
   34   -2013.9104984386      3.38e-03   Normal BFGS step
   35   -2013.9105194193      2.14e-03   Normal BFGS step
   36   -2013.9105490991      1.18e-03   Normal BFGS step
   37   -2013.9105515127      1.64e-03   Normal BFGS step
   38   -2013.9105529062      1.50e-03   Normal BFGS step
   39   -2013.9105550216      5.52e-04   Normal BFGS step
   40   -2013.9105554727      5.10e-04   Normal BFGS step
   41   -2013.9105559563      1.74e-04   Normal BFGS step
   42   -2013.9105560877      1.37e-04   Normal BFGS step
   43   -2013.9105561292      9.36e-05   Normal BFGS step
   44   -2013.9105561530      3.77e-05   Normal BFGS step
   45   -2013.9105561599      2.75e-05   Normal BFGS step
   46   -2013.9105561610      2.21e-05   Normal BFGS step
   47   -2013.9105561626      6.46e-06   Normal BFGS step
   48   -2013.9105561628      5.64e-06   Normal BFGS step
   49   -2013.9105561629      5.89e-06   Normal BFGS step
   50   -2013.9105561629      8.96e-06   Normal BFGS step
   51   -2013.9105561630      1.23e-06   Normal BFGS step
   52   -2013.9105561630      2.43e-06   Normal BFGS step
   53   -2013.9105561630      8.18e-07   Normal BFGS step
   54   -2013.9105561630      6.50e-07   Normal BFGS step
   55   -2013.9105561630      3.16e-07   Normal BFGS step
   56   -2013.9105561630      5.08e-07   Normal BFGS step
   57   -2013.9105561630      1.25e-07   Normal BFGS step
   58   -2013.9105561630      2.30e-07   Normal BFGS step
   59   -2013.9105561630      5.07e-08   Normal BFGS step
   60   -2013.9105561630      1.10e-07   Normal BFGS step
   61   -2013.9105561630      1.59e-08   Normal BFGS step
   62   -2013.9105561630      1.30e-08   Normal BFGS step
   63   -2013.9105561630      4.22e-09  Convergence criterion met
 ---------------------------------------
 SCF time:   CPU 478.95s  wall 60.00s 
<S^2> =          7.000996521
 SCF   energy in the final basis set =    -2013.9105561630
 Total energy in the final basis set =    -2013.9105561630
 
 --------------------------------------------------------------
 
                    Orbital Energies (a.u.)
 --------------------------------------------------------------
 
 Alpha MOs
 -- Occupied --
******* -29.763 -26.316 -26.315 -26.315 -18.966 -18.950 -10.140
-10.121 -10.062 -10.048 -10.044 -10.032 -10.031 -10.021 -10.012
-10.008 -10.008  -9.990  -9.962  -9.958  -9.956  -9.953  -3.950
 -2.787  -2.786  -2.784  -1.277  -1.085  -0.999  -0.975  -0.935
 -0.913  -0.900  -0.863  -0.846  -0.835  -0.792  -0.790  -0.787
 -0.754  -0.725  -0.711  -0.700  -0.691  -0.679  -0.674  -0.631
 -0.620  -0.615  -0.613  -0.613  -0.612  -0.611  -0.610  -0.599
 -0.590  -0.587  -0.582  -0.576  -0.572  -0.564  -0.556  -0.553
 -0.548  -0.545  -0.538  -0.535  -0.518  -0.516  -0.506  -0.505
 -0.498  -0.492  -0.490  -0.481  -0.479  -0.443  -0.442  -0.435
 -0.411  -0.407
 -- Virtual --
 -0.396  -0.353  -0.350  -0.323  -0.293  -0.249  -0.210  -0.141
 -0.110  -0.059   0.001   0.024   0.029   0.069   0.078   0.085
  0.088   0.096   0.097   0.103   0.119   0.124   0.131   0.137
  0.139   0.148   0.152   0.154   0.161   0.170   0.180   0.185
  0.189   0.195   0.199   0.217   0.219   0.222   0.236   0.245
  0.258   0.264   0.269   0.281   0.284   0.290   0.311   0.361
  0.402   0.412
 
 Beta MOs
 -- Occupied --
******* -29.720 -26.281 -26.281 -26.280 -18.967 -18.952 -10.140
-10.121 -10.064 -10.049 -10.046 -10.034 -10.031 -10.024 -10.012
-10.008 -10.008  -9.990  -9.963  -9.958  -9.956  -9.953  -3.720
 -2.557  -2.556  -2.555  -1.282  -1.091  -1.003  -0.979  -0.938
 -0.914  -0.903  -0.865  -0.848  -0.837  -0.792  -0.792  -0.788
 -0.757  -0.727  -0.712  -0.702  -0.693  -0.681  -0.675  -0.633
 -0.622  -0.617  -0.602  -0.592  -0.589  -0.585  -0.578  -0.573
 -0.564  -0.557  -0.555  -0.549  -0.547  -0.540  -0.536  -0.519
 -0.518  -0.507  -0.506  -0.503  -0.494  -0.492  -0.482  -0.481
 -0.444  -0.443  -0.436  -0.422  -0.419  -0.409
 -- Virtual --
 -0.390  -0.390  -0.389  -0.388  -0.387  -0.344  -0.342  -0.318
 -0.295  -0.262  -0.222  -0.149  -0.117  -0.062  -0.002   0.022
  0.027   0.066   0.075   0.083   0.086   0.094   0.095   0.100
  0.118   0.122   0.128   0.134   0.137   0.145   0.151   0.152
  0.161   0.169   0.179   0.184   0.188   0.194   0.198   0.216
  0.218   0.221   0.235   0.245   0.257   0.263   0.267   0.281
  0.281   0.290   0.309   0.358   0.398   0.408
 --------------------------------------------------------------
 
          Ground-State Mulliken Net Atomic Charges

     Atom                 Charge (a.u.)    Spin (a.u.)
  --------------------------------------------------------
      1 Fe                    0.756543       4.992241
      2 H                     0.123075      -0.018108
      3 H                     0.129085      -0.010041
      4 H                     0.113930      -0.005283
      5 C                    -0.139061       0.000215
      6 C                    -0.235462       0.004189
      7 H                     0.108993       0.000209
      8 H                     0.117812      -0.008969
      9 C                    -0.133603      -0.001942
     10 C                     0.067244      -0.139651
     11 H                     0.073445       0.000154
     12 H                     0.085666      -0.000416
     13 C                    -0.131883       0.000172
     14 H                     0.082726      -0.000513
     15 C                     0.015876      -0.132754
     16 H                     0.099987       0.000126
     17 O                    -0.005588      -0.157513
     18 H                     0.086891      -0.000020
     19 C                     0.025229      -0.002482
     20 C                    -0.216107      -0.013869
     21 C                     0.014531       0.002785
     22 H                     0.140897      -0.013209
     23 O                    -0.052356      -0.066378
     24 C                     0.026614      -0.008081
     25 H                     0.109035      -0.000039
     26 C                    -0.215675      -0.017814
     27 H                     0.085734      -0.000311
     28 H                     0.071106       0.000356
     29 H                     0.133196      -0.010889
     30 H                     0.108856      -0.001904
     31 H                     0.112250      -0.006437
     32 C                     0.036065      -0.112358
     33 H                     0.121356      -0.008521
     34 H                     0.063463       0.000803
     35 C                    -0.228833       0.003679
     36 H                     0.094860       0.002617
     37 C                    -0.045661      -0.061040
     38 H                     0.119661      -0.000020
     39 C                    -0.044583      -0.028993
     40 H                     0.127127       0.001188
     41 H                     0.121548       0.008027
     42 C                    -0.072270      -0.197419
     43 H                     0.148279       0.008212
  --------------------------------------------------------
  Sum of atomic charges =     2.000000
  Sum of spin   charges =     4.000000

 -----------------------------------------------------------------
                    Cartesian Multipole Moments
 -----------------------------------------------------------------
    Charge (ESU x 10^10)
                 9.6064
    Dipole Moment (Debye)
         X      11.1002      Y       3.6544      Z       0.8114
       Tot      11.7144
    Quadrupole Moments (Debye-Ang)
        XX     -27.0088     XY       5.8981     YY     -59.8671
        XZ      -6.9860     YZ      -0.3905     ZZ    -102.9388
    Octopole Moments (Debye-Ang^2)
       XXX     180.8684    XXY      54.0430    XYY     160.5177
       YYY      28.0331    XXZ     -29.4085    XYZ     -15.6448
       YYZ      -0.9608    XZZ      11.3533    YZZ       9.2363
       ZZZ       5.0323
    Hexadecapole Moments (Debye-Ang^3)
      XXXX   -4038.5081   XXXY     134.1815   XXYY    -660.7952
      XYYY     -15.7678   YYYY   -2072.6593   XXXZ    -144.6673
      XXYZ      46.2721   XYYZ     -59.9711   YYYZ     -30.9087
      XXZZ    -965.0028   XYZZ      29.3574   YYZZ    -554.0083
      XZZZ     -13.8421   YZZZ     -16.0749   ZZZZ    -904.9418
 -----------------------------------------------------------------
 Calculating analytic gradient of the SCF energy
 Gradient of SCF Energy
            1           2           3           4           5           6
    1   0.0086679   0.0000186   0.0026961  -0.0002492   0.0113629  -0.0118455
    2   0.0091547  -0.0064023  -0.0045624  -0.0024128  -0.0089504  -0.0154019
    3  -0.0047302   0.0048435   0.0001886  -0.0067385  -0.0133274  -0.0095062
            7           8           9          10          11          12
    1   0.0056616   0.0009010   0.0137852   0.0104387  -0.0068303   0.0013198
    2  -0.0030519   0.0020739   0.0166207  -0.0232670  -0.0005362  -0.0024577
    3   0.0005533  -0.0058272  -0.0119028  -0.0166616   0.0032606   0.0022653
           13          14          15          16          17          18
    1   0.0171567  -0.0006222  -0.0021635   0.0027136  -0.0404300   0.0013699
    2  -0.0041568   0.0027341   0.0194764   0.0037736  -0.0171747  -0.0036757
    3   0.0181257  -0.0032793   0.0204567  -0.0000836  -0.0117738   0.0020347
           19          20          21          22          23          24
    1   0.0049299  -0.0080869   0.0198858   0.0050767  -0.0079682  -0.0067418
    2  -0.0023667  -0.0035051   0.0106521  -0.0055147  -0.0489294   0.0130064
    3  -0.0002830   0.0251353   0.0204044  -0.0122649   0.0398319  -0.0357238
           25          26          27          28          29          30
    1   0.0026741  -0.0087601   0.0025542  -0.0049193  -0.0001713   0.0026002
    2   0.0013142   0.0247981   0.0002515   0.0030272   0.0099036   0.0001799
    3   0.0009223  -0.0107456  -0.0035774   0.0005457   0.0113768   0.0026529
           31          32          33          34          35          36
    1   0.0055361   0.0114151  -0.0022115  -0.0028899   0.0105563  -0.0044713
    2  -0.0005417   0.0055222  -0.0031745   0.0021363   0.0125503  -0.0063773
    3   0.0013755  -0.0165666  -0.0051560   0.0014643  -0.0162378   0.0101951
           37          38          39          40          41          42
    1  -0.0224987  -0.0031017   0.0200331   0.0035761  -0.0053973  -0.0198931
    2   0.0042469   0.0052897   0.0004873   0.0069896  -0.0066133   0.0022729
    3   0.0198168   0.0012030  -0.0221815  -0.0078774   0.0090044   0.0194617
           43
    1  -0.0056780
    2   0.0126108
    3  -0.0006740
 Max gradient component =       4.893E-02
 RMS gradient           =       1.222E-02
 Gradient time:  CPU 22.90 s  wall 2.97 s
 Geometry Optimization Parameters
   NAtoms,    NIC,     NZ,  NCons,   NDum,   NFix, NCnnct, MaxDiis
       43     329       0       0       0       0       0       0


** GEOMETRY OPTIMIZATION IN DELOCALIZED INTERNAL COORDINATES **
   Searching for a Minimum

   Optimization Cycle:   1

                       Coordinates (Angstroms)
     ATOM                X               Y               Z
      1  Fe        3.4377452441    2.6499476290   -0.3933446410
      2  H        -4.1045243702    2.2074238201    0.5102970831
      3  H        -1.8655117226    3.2049942691    1.3979398948
      4  H        -3.8245247313    1.4888698601    2.0900970775
      5  C        -3.6956004401    1.3023187539    1.0072240400
      6  C        -1.3942265976    2.2076486494    1.4767620930
      7  H        -5.5648515064    0.2565776070    0.6467555833
      8  H        -1.3865974743    1.9616704362    2.5555566758
      9  C        -4.4809549551    0.0703593331    0.5700790486
     10  C        -2.2174889076    1.2061771154    0.7104502749
     11  H        -0.3639244705    2.2992574068    1.1167374098
     12  H        -4.2926439441    0.5990584330   -1.5057541727
     13  C        -4.0903349606   -0.2783222451   -0.8608528672
     14  H        -4.2596826827   -0.7760570503    1.2468444173
     15  C        -1.7139643486    0.2949001704   -0.1683612310
     16  H        -4.6994241958   -1.1091378826   -1.2582547337
     17  O         0.5226408410    1.3545265687   -0.7256840230
     18  H        -2.2824135324    0.4943523019   -2.8412706531
     19  C        -2.5980455985   -0.6521168413   -0.9963110809
     20  C        -2.2430780237   -0.5532670084   -2.4968762434
     21  C        -0.2455006582    0.1090563128   -0.3714003476
     22  H         0.3517887879    0.2512100757    1.7531641418
     23  O         1.6893275143    0.8254758578    0.1924845935
     24  C         0.7304518603   -0.1476534301    0.7969006273
     25  H        -2.9711064994   -1.1379770064   -3.0860562431
     26  C        -2.3758709723   -2.1054212432   -0.5243367800
     27  H        -2.7079300540   -2.2433669239    0.5184109939
     28  H        -1.2429777076   -0.9522993459   -2.7280470420
     29  H        -0.0423170518   -0.6305113665   -1.1585881793
     30  H        -2.9374274221   -2.8110038265   -1.1615854821
     31  H        -0.4663968982   -2.3198437275    1.9369924623
     32  C         1.2943513359   -1.5176189021    0.9757329342
     33  H         0.8362754264   -1.8855314275    3.0532596444
     34  H        -1.3095631109   -2.3893672983   -0.5753074836
     35  C         0.6331487412   -2.3227437273    2.0573437740
     36  H         2.6869181927   -1.2235781754   -0.5640629791
     37  C         2.3081568745   -1.9399531093    0.1727291904
     38  H         0.9626419517   -3.3704230530    2.0768906111
     39  C         2.9617865095   -3.2327576019    0.2041524865
     40  H         2.6256894016   -3.9591801726    0.9512829370
     41  H         4.3323268518   -2.8872986655   -1.3973869849
     42  C         3.9622666967   -3.5811670861   -0.6358293230
     43  H         4.4384742396   -4.5631308972   -0.5897984509
   Point Group: c1    Number of degrees of freedom:   123


   Energy is  -2013.910556163


 Attempting to Generate Delocalized Internal Coordinates

123 Hessian modes will be used to form the next step
  Hessian Eigenvalues:
     0.003207    0.003346    0.004159    0.005206    0.008389    0.008402
     0.008945    0.009967    0.010206    0.011521    0.011752    0.014639
     0.015819    0.015927    0.021819    0.022388    0.027631    0.028756
     0.028756    0.030393    0.032112    0.037454    0.038990    0.043453
     0.044907    0.047421    0.048189    0.049685    0.051694    0.053064
     0.053439    0.054359    0.055165    0.056474    0.059841    0.060278
     0.068928    0.069030    0.070072    0.073574    0.075410    0.078365
     0.078911    0.083988    0.085447    0.095691    0.096829    0.098651
     0.116848    0.121083    0.131224    0.133956    0.154919    0.159983
     0.159999    0.160000    0.160000    0.160000    0.160000    0.160000
     0.160000    0.160000    0.160000    0.160000    0.160000    0.160000
     0.160000    0.160000    0.160000    0.160866    0.188626    0.205120
     0.217540    0.220000    0.220007    0.230097    0.245947    0.249852
     0.249947    0.249974    0.250000    0.271347    0.273209    0.280681
     0.281283    0.281596    0.287449    0.294749    0.297825    0.306670
     0.317592    0.321929    0.322666    0.325395    0.328629    0.329725
     0.329772    0.329883    0.330110    0.330147    0.330195    0.330377
     0.331739    0.332052    0.332209    0.332261    0.332324    0.333005
     0.333371    0.333522    0.334130    0.335385    0.337875    0.338547
     0.342150    0.342158    0.342499    0.342751    0.345468    0.383780
     0.505397    0.528449    0.545969

 Minimum Search - Taking Simple RFO Step
 Searching for Lamda that Minimizes Along All modes
 Value Taken    Lamda =  -0.06143082
 Calculated Step too Large.  Step scaled by  0.713540
 Step Taken.  Stepsize is  0.300000

                             Maximum     Tolerance    Cnvgd?
         Gradient           0.063579      0.000300      NO
         Displacement       0.110992      0.001200      NO
         Energy change     *********      0.000001      NO


 New Cartesian Coordinates Obtained by Inverse Iteration

 Displacement from previous Coordinates is:  1.197048
 ----------------------------------------------------------------
             Standard Nuclear Orientation (Angstroms)
    I     Atom           X                Y                Z
 ----------------------------------------------------------------
    1      Fe      3.3820977235     2.6986962826    -0.3966621869
    2      H      -4.1512483409     2.2653030395     0.5187636966
    3      H      -1.8801292621     3.2614852012     1.4262185375
    4      H      -3.8881071852     1.5384325692     2.1110476853
    5      C      -3.7591735749     1.3474811054     1.0220656927
    6      C      -1.4113361704     2.2571508867     1.5026343095
    7      H      -5.6575175766     0.3125759551     0.6359119115
    8      H      -1.4072242494     2.0048558508     2.5860790764
    9      C      -4.5709571340     0.1065132284     0.5647320818
   10      C      -2.2566960575     1.2441558512     0.7232756457
   11      H      -0.3747900849     2.3427878095     1.1376052178
   12      H      -4.3667796401     0.6442290422    -1.5345630655
   13      C      -4.1747165243    -0.2417504471    -0.8924585712
   14      H      -4.3646117715    -0.7484265551     1.2421780321
   15      C      -1.7468604214     0.3054308367    -0.1789970283
   16      H      -4.7984553229    -1.0657026447    -1.2929343212
   17      O       0.5569503651     1.3747153115    -0.7058561783
   18      H      -2.3079255028     0.5119939890    -2.9070125749
   19      C      -2.6575402978    -0.6427658783    -1.0310792768
   20      C      -2.2830911437    -0.5397076047    -2.5608803274
   21      C      -0.2461341450     0.1054113446    -0.3744976916
   22      H       0.3996120183     0.2342634562     1.7927730252
   23      O       1.7171401862     0.8608814078     0.1826009854
   24      C       0.7743356736    -0.1661758366     0.8198092360
   25      H      -3.0204568178    -1.1141231433    -3.1538677130
   26      C      -2.4527353583    -2.1324647267    -0.5561964815
   27      H      -2.7967207895    -2.2725386761     0.4866300016
   28      H      -1.2834779639    -0.9575927472    -2.7866071099
   29      H      -0.0490234175    -0.6344217063    -1.1824239280
   30      H      -3.0309014446    -2.8162329765    -1.2071700132
   31      H      -0.3721956974    -2.3912470236     2.0284603230
   32      C       1.3726356383    -1.5582018902     1.0077125129
   33      H       0.9556615314    -1.9202918418     3.1197711670
   34      H      -1.3902966100    -2.4422358811    -0.6086951282
   35      C       0.7347034588    -2.3756241891     2.1290109962
   36      H       2.7622050900    -1.2803862231    -0.5942756862
   37      C       2.4011245649    -1.9876466747     0.1769869547
   38      H       1.0887572659    -3.4212265722     2.1470070946
   39      C       3.0790765851    -3.2838383791     0.2292656037
   40      H       2.7640877827    -4.0029187072     1.0073314327
   41      H       4.4399570749    -2.9574750852    -1.4349717907
   42      C       4.0867081965    -3.6414066695    -0.6405514760
   43      H       4.5811569822    -4.6278645014    -0.5791916186
 ----------------------------------------------------------------
 Molecular Point Group                 C1    NOp =  1
 Largest Abelian Subgroup              C1    NOp =  1
 Nuclear Repulsion Energy =  1717.2435706105 hartrees
 There are       82 alpha and       78 beta electrons
 Applying Cartesian multipole field
    Component          Value
    ---------          -----
     (2,0,0)        1.00000E-12
     (0,2,0)        2.00000E-11
     (0,0,2)       -3.00000E-11
 Nucleus-field energy     =     0.0000000278 hartrees
 Requested basis set is STO-3G
 There are 65 shells and 132 basis functions
 A cutoff of  1.0D-12 yielded   1653 shell pairs
 There are      7288 function pairs (      7366 Cartesian)
 Smallest overlap matrix eigenvalue = 2.02E-01
 Guess MOs from SCF MO coefficient file

 -----------------------------------------------------------------------
  General SCF calculation program by
  Eric Jon Sundstrom, Paul Horn, Yuezhi Mao, Dmitri Zuev, Alec White,
  David Stuck, Shaama M.S., Shane Yost, Joonho Lee, David Small,
  Daniel Levine, Susi Lehtola, Hugh Burton, Evgeny Epifanovsky
 -----------------------------------------------------------------------
 Exchange:  B88      Correlation:  LYP
 Using SG-1 standard quadrature grid
 using 8 threads for integral computing
 -------------------------------------------------------
 OpenMP Integral computing Module                
 Release: version 1.0, May 2013, Q-Chem Inc. Pittsburgh 
 -------------------------------------------------------
 -------------------------------------------------------
 OpenMP BLAS3 based DFT computing Module                
 Release: version 1.0, May 2013, Q-Chem Inc. Pittsburgh 
 -------------------------------------------------------
 A unrestricted SCF calculation will be
 performed using DIIS, GDM
 SCF converges when RMS gradient is below 1.0e-08
 ---------------------------------------
  Cycle       Energy         DIIS error
 ---------------------------------------
    1   -2013.9355832886      4.90e-04  
    2   -2013.9361334765      4.34e-04  Done DIIS. Switching to GDM
 ---------------------------------------
  Cycle       Energy        RMS Gradient
 ---------------------------------------
    1   -2013.9361334765      8.97e-02   Normal BFGS step
    2   -2013.9103348654      3.52e-01  Line search: overstep
    3   -2013.9392145701      2.36e-02   Normal BFGS step
    4   -2013.9392173129      1.21e-02   Normal BFGS step
    5   -2013.9393893146      1.36e-02   Normal BFGS step
    6   -2013.9394831267      1.09e-02   Normal BFGS step
    7   -2013.9396987193      4.00e-03   Normal BFGS step
    8   -2013.9396696535      4.67e-03  Line search: overstep
    9   -2013.9397147424      1.16e-03   Normal BFGS step
   10   -2013.9397178558      1.17e-03   Normal BFGS step
   11   -2013.9397202816      8.68e-04   Normal BFGS step
   12   -2013.9397195809      2.18e-03  Line search: overstep
   13   -2013.9397211087      4.29e-04   Normal BFGS step
   14   -2013.9397212091      2.80e-04   Normal BFGS step
   15   -2013.9397213786      2.40e-04   Normal BFGS step
   16   -2013.9397213645      1.88e-04   Normal BFGS step
   17   -2013.9397214241      5.02e-05   Normal BFGS step
   18   -2013.9397214244      5.39e-05   Normal BFGS step
   19   -2013.9397214302      1.64e-05   Normal BFGS step
   20   -2013.9397214302      1.57e-05   Normal BFGS step
   21   -2013.9397214308      6.28e-06   Normal BFGS step
   22   -2013.9397214308      8.52e-06   Normal BFGS step
   23   -2013.9397214309      1.77e-06   Normal BFGS step
   24   -2013.9397214309      4.11e-06   Normal BFGS step
   25   -2013.9397214309      3.48e-07   Normal BFGS step
   26   -2013.9397214309      5.10e-07   Normal BFGS step
   27   -2013.9397214309      1.42e-07   Normal BFGS step
   28   -2013.9397214309      3.94e-07   Normal BFGS step
   29   -2013.9397214309      3.61e-08   Normal BFGS step
   30   -2013.9397214309      7.99e-08   Normal BFGS step
   31   -2013.9397214309      2.54e-08   Normal BFGS step
   32   -2013.9397214309      4.28e-08   Normal BFGS step
   33   -2013.9397214309      9.11e-09  Convergence criterion met
 ---------------------------------------
 SCF time:   CPU 252.54s  wall 31.00s 
<S^2> =          7.001313393
 SCF   energy in the final basis set =    -2013.9397214309
 Total energy in the final basis set =    -2013.9397214309
 
 --------------------------------------------------------------
 
                    Orbital Energies (a.u.)
 --------------------------------------------------------------
 
 Alpha MOs
 -- Occupied --
******* -29.754 -26.307 -26.307 -26.306 -18.964 -18.944 -10.135
-10.116 -10.060 -10.047 -10.043 -10.031 -10.030 -10.021 -10.012
-10.008 -10.007  -9.989  -9.961  -9.957  -9.957  -9.953  -3.942
 -2.779  -2.778  -2.776  -1.269  -1.067  -0.984  -0.960  -0.925
 -0.899  -0.889  -0.854  -0.837  -0.827  -0.786  -0.782  -0.781
 -0.746  -0.716  -0.705  -0.694  -0.682  -0.670  -0.664  -0.623
 -0.613  -0.607  -0.605  -0.605  -0.604  -0.603  -0.602  -0.593
 -0.583  -0.580  -0.575  -0.570  -0.566  -0.559  -0.550  -0.548
 -0.543  -0.539  -0.534  -0.532  -0.515  -0.512  -0.503  -0.499
 -0.495  -0.489  -0.484  -0.477  -0.476  -0.442  -0.440  -0.432
 -0.404  -0.401
 -- Virtual --
 -0.391  -0.347  -0.344  -0.315  -0.276  -0.251  -0.214  -0.152
 -0.123  -0.079  -0.024   0.013   0.019   0.043   0.057   0.067
  0.073   0.079   0.087   0.088   0.101   0.109   0.120   0.121
  0.131   0.138   0.146   0.147   0.150   0.155   0.164   0.176
  0.182   0.185   0.190   0.206   0.210   0.214   0.224   0.234
  0.243   0.246   0.250   0.260   0.267   0.278   0.283   0.335
  0.360   0.379
 
 Beta MOs
 -- Occupied --
******* -29.711 -26.272 -26.272 -26.271 -18.965 -18.946 -10.135
-10.116 -10.062 -10.047 -10.045 -10.033 -10.030 -10.023 -10.012
-10.008 -10.007  -9.989  -9.961  -9.957  -9.957  -9.953  -3.712
 -2.549  -2.548  -2.547  -1.273  -1.072  -0.987  -0.964  -0.928
 -0.901  -0.892  -0.856  -0.840  -0.829  -0.786  -0.784  -0.782
 -0.749  -0.718  -0.706  -0.696  -0.683  -0.672  -0.666  -0.625
 -0.615  -0.608  -0.596  -0.585  -0.583  -0.578  -0.572  -0.568
 -0.560  -0.551  -0.550  -0.545  -0.540  -0.536  -0.532  -0.517
 -0.515  -0.504  -0.503  -0.496  -0.490  -0.488  -0.479  -0.477
 -0.442  -0.441  -0.433  -0.416  -0.413  -0.404
 -- Virtual --
 -0.382  -0.382  -0.381  -0.380  -0.379  -0.339  -0.336  -0.310
 -0.280  -0.263  -0.226  -0.158  -0.130  -0.083  -0.027   0.011
  0.018   0.041   0.053   0.065   0.072   0.076   0.085   0.086
  0.100   0.107   0.116   0.119   0.130   0.136   0.144   0.146
  0.149   0.153   0.163   0.175   0.181   0.184   0.189   0.204
  0.209   0.213   0.224   0.234   0.241   0.245   0.249   0.257
  0.267   0.277   0.282   0.332   0.356   0.376
 --------------------------------------------------------------
 
          Ground-State Mulliken Net Atomic Charges

     Atom                 Charge (a.u.)    Spin (a.u.)
  --------------------------------------------------------
      1 Fe                    0.734799       4.991185
      2 H                     0.120172      -0.017163
      3 H                     0.126797      -0.009006
      4 H                     0.112272      -0.004826
      5 C                    -0.134726       0.001151
      6 C                    -0.229661       0.005230
      7 H                     0.107715       0.000225
      8 H                     0.116058      -0.008622
      9 C                    -0.129985      -0.001895
     10 C                     0.069540      -0.147331
     11 H                     0.073172       0.000090
     12 H                     0.085724      -0.000409
     13 C                    -0.130310       0.000131
     14 H                     0.082844      -0.000395
     15 C                     0.016834      -0.140738
     16 H                     0.099610       0.000125
     17 O                    -0.009392      -0.147367
     18 H                     0.086769      -0.000041
     19 C                     0.028218      -0.001971
     20 C                    -0.214129      -0.013722
     21 C                     0.015446       0.004154
     22 H                     0.138253      -0.012021
     23 O                    -0.051228      -0.062700
     24 C                     0.027788      -0.007712
     25 H                     0.107934      -0.000069
     26 C                    -0.213945      -0.018619
     27 H                     0.085956      -0.000190
     28 H                     0.071168       0.000396
     29 H                     0.130660      -0.010234
     30 H                     0.107540      -0.001771
     31 H                     0.111286      -0.006086
     32 C                     0.036832      -0.120302
     33 H                     0.119457      -0.008199
     34 H                     0.064767       0.000810
     35 C                    -0.222819       0.004408
     36 H                     0.095342       0.002417
     37 C                    -0.042505      -0.055680
     38 H                     0.118342      -0.000044
     39 C                    -0.041089      -0.027801
     40 H                     0.125781       0.001184
     41 H                     0.121743       0.008379
     42 C                    -0.065644      -0.203528
     43 H                     0.146614       0.008558
  --------------------------------------------------------
  Sum of atomic charges =     2.000000
  Sum of spin   charges =     4.000000

 -----------------------------------------------------------------
                    Cartesian Multipole Moments
 -----------------------------------------------------------------
    Charge (ESU x 10^10)
                 9.6064
    Dipole Moment (Debye)
         X      10.6889      Y       3.1726      Z       0.9061
       Tot      11.1866
    Quadrupole Moments (Debye-Ang)
        XX     -25.9377     XY       2.4737     YY     -58.3257
        XZ      -6.5662     YZ      -0.2566     ZZ    -102.0195
    Octopole Moments (Debye-Ang^2)
       XXX     171.0086    XXY      37.7434    XYY     164.9473
       YYY      19.5588    XXZ     -29.9136    XYZ     -15.6995
       YYZ       0.6521    XZZ      11.1656    YZZ       7.0118
       ZZZ       5.0462
    Hexadecapole Moments (Debye-Ang^3)
      XXXX   -4163.4879   XXXY      92.1874   XXYY    -674.6063
      XYYY     -20.1523   YYYY   -2138.6705   XXXZ    -164.8654
      XXYZ      56.9385   XYYZ     -66.2186   YYYZ     -28.3562
      XXZZ    -992.7298   XYZZ      37.7462   YYZZ    -571.5185
      XZZZ     -27.3866   YZZZ     -13.4887   ZZZZ    -938.5694
 -----------------------------------------------------------------
 Calculating analytic gradient of the SCF energy
 Gradient of SCF Energy
            1           2           3           4           5           6
    1   0.0109571  -0.0010436   0.0015271  -0.0007727   0.0057540  -0.0053349
    2   0.0120946  -0.0017230  -0.0008452  -0.0003138  -0.0027562  -0.0069343
    3  -0.0055823   0.0026267   0.0005515  -0.0020769  -0.0058859  -0.0038639
            7           8           9          10          11          12
    1   0.0015439   0.0005722   0.0037125   0.0027844  -0.0022278  -0.0000634
    2  -0.0026165   0.0015833   0.0081166  -0.0076781   0.0011474  -0.0009424
    3   0.0010763  -0.0013657  -0.0046340  -0.0040393   0.0019371   0.0005173
           13          14          15          16          17          18
    1   0.0055365  -0.0007551  -0.0006315   0.0003033  -0.0194005   0.0009914
    2  -0.0033576   0.0007240   0.0062214   0.0023734  -0.0051154  -0.0013256
    3   0.0074406  -0.0008080   0.0056765  -0.0011372  -0.0070280  -0.0001303
           19          20          21          22          23          24
    1   0.0025829  -0.0045736   0.0116139   0.0016151  -0.0034071  -0.0064680
    2  -0.0014326  -0.0018948   0.0039258  -0.0026531  -0.0286001   0.0121124
    3  -0.0000280   0.0095501   0.0105853  -0.0032672   0.0226887  -0.0203506
           25          26          27          28          29          30
    1   0.0016265  -0.0045426   0.0015162  -0.0015490   0.0002818   0.0016271
    2   0.0006631   0.0101341  -0.0009268   0.0013990   0.0027482  -0.0009638
    3  -0.0005922  -0.0052264  -0.0009675  -0.0011696   0.0040066   0.0014128
           31          32          33          34          35          36
    1   0.0013496   0.0023243  -0.0014005  -0.0011191   0.0053255  -0.0007623
    2  -0.0005716   0.0009344  -0.0014174  -0.0002912   0.0045568  -0.0015434
    3   0.0013726  -0.0027212  -0.0009440   0.0012774  -0.0084708   0.0033484
           37          38          39          40          41          42
    1  -0.0071818  -0.0018382   0.0067231   0.0005536  -0.0013796  -0.0051880
    2   0.0002971   0.0013586   0.0002557   0.0021530  -0.0019262  -0.0008051
    3   0.0073684   0.0014617  -0.0085204  -0.0020575   0.0024967   0.0062183
           43
    1  -0.0011825
    2   0.0038352
    3  -0.0007462
 Max gradient component =       2.860E-02
 RMS gradient           =       5.820E-03
 Gradient time:  CPU 22.46 s  wall 2.89 s
 Geometry Optimization Parameters
   NAtoms,    NIC,     NZ,  NCons,   NDum,   NFix, NCnnct, MaxDiis
       43     329       0       0       0       0       0       0

 Cartesian Hessian Update
 Hessian Updated using BFGS Update


** GEOMETRY OPTIMIZATION IN DELOCALIZED INTERNAL COORDINATES **
   Searching for a Minimum

   Optimization Cycle:   2

                       Coordinates (Angstroms)
     ATOM                X               Y               Z
      1  Fe        3.3820977235    2.6986962826   -0.3966621869
      2  H        -4.1512483409    2.2653030395    0.5187636966
      3  H        -1.8801292621    3.2614852012    1.4262185375
      4  H        -3.8881071852    1.5384325692    2.1110476853
      5  C        -3.7591735749    1.3474811054    1.0220656927
      6  C        -1.4113361704    2.2571508867    1.5026343095
      7  H        -5.6575175766    0.3125759551    0.6359119115
      8  H        -1.4072242494    2.0048558508    2.5860790764
      9  C        -4.5709571340    0.1065132284    0.5647320818
     10  C        -2.2566960575    1.2441558512    0.7232756457
     11  H        -0.3747900849    2.3427878095    1.1376052178
     12  H        -4.3667796401    0.6442290422   -1.5345630655
     13  C        -4.1747165243   -0.2417504471   -0.8924585712
     14  H        -4.3646117715   -0.7484265551    1.2421780321
     15  C        -1.7468604214    0.3054308367   -0.1789970283
     16  H        -4.7984553229   -1.0657026447   -1.2929343212
     17  O         0.5569503651    1.3747153115   -0.7058561783
     18  H        -2.3079255028    0.5119939890   -2.9070125749
     19  C        -2.6575402978   -0.6427658783   -1.0310792768
     20  C        -2.2830911437   -0.5397076047   -2.5608803274
     21  C        -0.2461341450    0.1054113446   -0.3744976916
     22  H         0.3996120183    0.2342634562    1.7927730252
     23  O         1.7171401862    0.8608814078    0.1826009854
     24  C         0.7743356736   -0.1661758366    0.8198092360
     25  H        -3.0204568178   -1.1141231433   -3.1538677130
     26  C        -2.4527353583   -2.1324647267   -0.5561964815
     27  H        -2.7967207895   -2.2725386761    0.4866300016
     28  H        -1.2834779639   -0.9575927472   -2.7866071099
     29  H        -0.0490234175   -0.6344217063   -1.1824239280
     30  H        -3.0309014446   -2.8162329765   -1.2071700132
     31  H        -0.3721956974   -2.3912470236    2.0284603230
     32  C         1.3726356383   -1.5582018902    1.0077125129
     33  H         0.9556615314   -1.9202918418    3.1197711670
     34  H        -1.3902966100   -2.4422358811   -0.6086951282
     35  C         0.7347034588   -2.3756241891    2.1290109962
     36  H         2.7622050900   -1.2803862231   -0.5942756862
     37  C         2.4011245649   -1.9876466747    0.1769869547
     38  H         1.0887572659   -3.4212265722    2.1470070946
     39  C         3.0790765851   -3.2838383791    0.2292656037
     40  H         2.7640877827   -4.0029187072    1.0073314327
     41  H         4.4399570749   -2.9574750852   -1.4349717907
     42  C         4.0867081965   -3.6414066695   -0.6405514760
     43  H         4.5811569822   -4.6278645014   -0.5791916186
   Point Group: c1    Number of degrees of freedom:   123


   Energy is  -2013.939721431

 Hessian Updated using BFGS Update

111 Hessian modes will be used to form the next step
  Hessian Eigenvalues:
     0.003207    0.003347    0.004158    0.005206    0.008390    0.008403
     0.008945    0.009966    0.010210    0.011521    0.011753    0.014641
     0.015821    0.015927    0.021820    0.022388    0.027639    0.028755
     0.028756    0.030390    0.032143    0.037444    0.039001    0.042342
     0.043490    0.047409    0.048188    0.049690    0.051679    0.053073
     0.053441    0.054383    0.055165    0.056475    0.059797    0.060304
     0.068927    0.069025    0.070074    0.073566    0.075417    0.078366
     0.078911    0.084003    0.085396    0.095633    0.096844    0.098638
     0.117052    0.121083    0.131260    0.133956    0.154630    0.158458
     0.159986    0.159999    0.160256    0.160864    0.188633    0.204019
     0.217579    0.219172    0.220003    0.230133    0.239144    0.249750
     0.249941    0.249972    0.250127    0.271182    0.274236    0.280952
     0.281147    0.285099    0.287451    0.297783    0.298260    0.309261
     0.318418    0.321612    0.322350    0.325428    0.328630    0.329726
     0.329775    0.329878    0.330144    0.330192    0.330370    0.330995
     0.331735    0.332195    0.332246    0.332316    0.332993    0.333252
     0.333516    0.334106    0.335355    0.337577    0.338510    0.341351
     0.342131    0.342347    0.342654    0.345104    0.365913    0.390414
     0.513312    0.536408    0.563839

 Minimum Search - Taking Simple RFO Step
 Searching for Lamda that Minimizes Along All modes
 Value Taken    Lamda =  -0.01573295
 Calculated Step too Large.  Step scaled by  0.694366
 Step Taken.  Stepsize is  0.300000

                             Maximum     Tolerance    Cnvgd?
         Gradient           0.015354      0.000300      NO
         Displacement       0.120397      0.001200      NO
         Energy change     -0.029165      0.000001      NO


 New Cartesian Coordinates Obtained by Inverse Iteration

 Displacement from previous Coordinates is:  0.690953
 ----------------------------------------------------------------
             Standard Nuclear Orientation (Angstroms)
    I     Atom           X                Y                Z
 ----------------------------------------------------------------
    1      Fe      3.2410954956     2.6689232177    -0.2903025392
    2      H      -4.1489540734     2.3018413890     0.4985535827
    3      H      -1.8488699613     3.2860795175     1.4005651036
    4      H      -3.9008990163     1.5822678527     2.1075784257
    5      C      -3.7760674472     1.3815136833     1.0175203765
    6      C      -1.3920893204     2.2749650562     1.4839287966
    7      H      -5.6882413280     0.3693303181     0.6186752008
    8      H      -1.3844494417     2.0228406757     2.5693793741
    9      C      -4.6036146557     0.1391097603     0.5568701002
   10      C      -2.2660784716     1.2631901274     0.7163722978
   11      H      -0.3566353319     2.3300470959     1.1008068704
   12      H      -4.3878224802     0.6683113222    -1.5572464607
   13      C      -4.2078868436    -0.2175091185    -0.9093197970
   14      H      -4.4092510197    -0.7166824632     1.2390183287
   15      C      -1.7647217375     0.3041882396    -0.1866909734
   16      H      -4.8385402253    -1.0436081879    -1.2996225527
   17      O       0.5638836395     1.3754725923    -0.6775877998
   18      H      -2.3035880456     0.4991163511    -2.9304016762
   19      C      -2.6864844441    -0.6410398653    -1.0412731859
   20      C      -2.2914213662    -0.5522267438    -2.5779192243
   21      C      -0.2566981681     0.0917756511    -0.3741766550
   22      H       0.3915115536     0.1981218746     1.8219382200
   23      O       1.6997282711     0.8760767789     0.2096528173
   24      C       0.7748155344    -0.1958793620     0.8438586738
   25      H      -3.0354753788    -1.1253556280    -3.1663606801
   26      C      -2.4974973795    -2.1400010559    -0.5499760420
   27      H      -2.8531357082    -2.2626321539     0.4926999179
   28      H      -1.2927394019    -0.9888598278    -2.7807449470
   29      H      -0.0582021149    -0.6404995251    -1.1961158690
   30      H      -3.0892953944    -2.8100076858    -1.2052921747
   31      H      -0.3221669050    -2.4542270925     2.0641694008
   32      C       1.4000028587    -1.5859989789     1.0210772332
   33      H       1.0196782509    -1.9611004465     3.1445701882
   34      H      -1.4370993443    -2.4610353961    -0.6024833080
   35      C       0.7866850350    -2.4215004502     2.1567543023
   36      H       2.7699610238    -1.2906076920    -0.6156163401
   37      C       2.4329943933    -1.9978653594     0.1721435827
   38      H       1.1676481424    -3.4600620887     2.1564073406
   39      C       3.1348360921    -3.2842542784     0.2336748909
   40      H       2.8456459770    -4.0050621022     1.0247552261
   41      H       4.4713596904    -2.9437582032    -1.4643937009
   42      C       4.1411555968    -3.6287433855    -0.6557642470
   43      H       4.6540310828    -4.6105578257    -0.5907030251
 ----------------------------------------------------------------
 Molecular Point Group                 C1    NOp =  1
 Largest Abelian Subgroup              C1    NOp =  1
 Nuclear Repulsion Energy =  1718.0422287019 hartrees
 There are       82 alpha and       78 beta electrons
 Applying Cartesian multipole field
    Component          Value
    ---------          -----
     (2,0,0)        1.00000E-12
     (0,2,0)        2.00000E-11
     (0,0,2)       -3.00000E-11
 Nucleus-field energy     =     0.0000000278 hartrees
 Requested basis set is STO-3G
 There are 65 shells and 132 basis functions
 A cutoff of  1.0D-12 yielded   1653 shell pairs
 There are      7333 function pairs (      7417 Cartesian)
 Smallest overlap matrix eigenvalue = 2.06E-01
 Guess MOs from SCF MO coefficient file

 -----------------------------------------------------------------------
  General SCF calculation program by
  Eric Jon Sundstrom, Paul Horn, Yuezhi Mao, Dmitri Zuev, Alec White,
  David Stuck, Shaama M.S., Shane Yost, Joonho Lee, David Small,
  Daniel Levine, Susi Lehtola, Hugh Burton, Evgeny Epifanovsky
 -----------------------------------------------------------------------
 Exchange:  B88      Correlation:  LYP
 Using SG-1 standard quadrature grid
 using 8 threads for integral computing
 -------------------------------------------------------
 OpenMP Integral computing Module                
 Release: version 1.0, May 2013, Q-Chem Inc. Pittsburgh 
 -------------------------------------------------------
 -------------------------------------------------------
 OpenMP BLAS3 based DFT computing Module                
 Release: version 1.0, May 2013, Q-Chem Inc. Pittsburgh 
 -------------------------------------------------------
 A unrestricted SCF calculation will be
 performed using DIIS, GDM
 SCF converges when RMS gradient is below 1.0e-08
 ---------------------------------------
  Cycle       Energy         DIIS error
 ---------------------------------------
    1   -2013.9460382029      3.53e-04  
    2   -2013.9450723101      4.40e-04  Done DIIS. Switching to GDM
 ---------------------------------------
  Cycle       Energy        RMS Gradient
 ---------------------------------------
    1   -2013.9450723101      8.33e-02   Normal BFGS step
    2   -2013.9221275401      2.94e-01  Line search: overstep
    3   -2013.9484665023      2.46e-02   Normal BFGS step
    4   -2013.9487019109      9.19e-03   Normal BFGS step
    5   -2013.9488457016      1.02e-02   Normal BFGS step
    6   -2013.9488598211      7.85e-03   Normal BFGS step
    7   -2013.9490269510      6.06e-03   Normal BFGS step
    8   -2013.9489494370      9.64e-03  Line search: overstep
    9   -2013.9490496468      2.41e-03   Normal BFGS step
   10   -2013.9490524747      2.96e-03   Normal BFGS step
   11   -2013.9490583499      1.18e-03   Normal BFGS step
   12   -2013.9490570345      1.91e-03  Line search: overstep
   13   -2013.9490593642      3.28e-04   Normal BFGS step
   14   -2013.9490594831      2.84e-04   Normal BFGS step
   15   -2013.9490596134      2.65e-04   Normal BFGS step
   16   -2013.9490596112      1.12e-04   Normal BFGS step
   17   -2013.9490596466      5.85e-05   Normal BFGS step
   18   -2013.9490596492      3.12e-05   Normal BFGS step
   19   -2013.9490596524      2.23e-05   Normal BFGS step
   20   -2013.9490596526      1.71e-05   Normal BFGS step
   21   -2013.9490596534      6.79e-06   Normal BFGS step
   22   -2013.9490596534      8.81e-06   Normal BFGS step
   23   -2013.9490596536      1.19e-06   Normal BFGS step
   24   -2013.9490596535      2.72e-06   Normal BFGS step
   25   -2013.9490596536      8.87e-07   Normal BFGS step
   26   -2013.9490596536      9.85e-07   Normal BFGS step
   27   -2013.9490596536      7.76e-08   Normal BFGS step
   28   -2013.9490596536      1.12e-07   Normal BFGS step
   29   -2013.9490596536      6.29e-08   Normal BFGS step
   30   -2013.9490596536      7.33e-08   Normal BFGS step
   31   -2013.9490596536      2.49e-08   Normal BFGS step
   32   -2013.9490596536      7.11e-08   Normal BFGS step
   33   -2013.9490596536      6.88e-09  Convergence criterion met
 ---------------------------------------
 SCF time:   CPU 255.35s  wall 32.00s 
<S^2> =          7.001091797
 SCF   energy in the final basis set =    -2013.9490596536
 Total energy in the final basis set =    -2013.9490596536
 
 --------------------------------------------------------------
 
                    Orbital Energies (a.u.)
 --------------------------------------------------------------
 
 Alpha MOs
 -- Occupied --
******* -29.742 -26.295 -26.294 -26.293 -18.972 -18.947 -10.138
-10.119 -10.064 -10.051 -10.047 -10.035 -10.033 -10.025 -10.015
-10.011 -10.010  -9.993  -9.964  -9.960  -9.960  -9.957  -3.930
 -2.768  -2.767  -2.764  -1.277  -1.065  -0.984  -0.960  -0.926
 -0.899  -0.890  -0.855  -0.838  -0.829  -0.787  -0.784  -0.782
 -0.748  -0.719  -0.707  -0.696  -0.685  -0.673  -0.664  -0.624
 -0.615  -0.608  -0.602  -0.594  -0.594  -0.592  -0.591  -0.589
 -0.584  -0.582  -0.576  -0.572  -0.568  -0.561  -0.552  -0.551
 -0.546  -0.541  -0.537  -0.534  -0.519  -0.515  -0.506  -0.504
 -0.492  -0.490  -0.483  -0.480  -0.477  -0.445  -0.443  -0.434
 -0.406  -0.403
 -- Virtual --
 -0.393  -0.340  -0.337  -0.305  -0.269  -0.253  -0.216  -0.158
 -0.129  -0.091  -0.039   0.005   0.014   0.030   0.046   0.056
  0.066   0.069   0.080   0.081   0.091   0.101   0.112   0.113
  0.125   0.132   0.140   0.141   0.145   0.147   0.156   0.169
  0.174   0.177   0.185   0.198   0.205   0.208   0.218   0.227
  0.234   0.238   0.241   0.249   0.259   0.271   0.272   0.323
  0.343   0.365
 
 Beta MOs
 -- Occupied --
******* -29.699 -26.260 -26.260 -26.259 -18.973 -18.949 -10.139
-10.119 -10.065 -10.051 -10.049 -10.037 -10.034 -10.027 -10.015
-10.011 -10.010  -9.993  -9.964  -9.960  -9.960  -9.957  -3.701
 -2.538  -2.537  -2.536  -1.281  -1.069  -0.987  -0.964  -0.929
 -0.901  -0.892  -0.856  -0.841  -0.831  -0.788  -0.786  -0.784
 -0.751  -0.720  -0.708  -0.697  -0.687  -0.675  -0.667  -0.626
 -0.617  -0.609  -0.600  -0.587  -0.584  -0.579  -0.574  -0.570
 -0.562  -0.554  -0.552  -0.547  -0.542  -0.539  -0.535  -0.521
 -0.517  -0.509  -0.506  -0.496  -0.492  -0.482  -0.481  -0.477
 -0.446  -0.444  -0.435  -0.418  -0.414  -0.406
 -- Virtual --
 -0.371  -0.371  -0.370  -0.369  -0.368  -0.332  -0.328  -0.303
 -0.273  -0.263  -0.228  -0.164  -0.136  -0.095  -0.043   0.003
  0.012   0.028   0.041   0.053   0.065   0.066   0.079   0.079
  0.090   0.099   0.109   0.111   0.124   0.130   0.138   0.140
  0.143   0.145   0.155   0.168   0.173   0.176   0.185   0.197
  0.204   0.207   0.217   0.227   0.232   0.238   0.240   0.246
  0.258   0.270   0.272   0.321   0.339   0.362
 --------------------------------------------------------------
 
          Ground-State Mulliken Net Atomic Charges

     Atom                 Charge (a.u.)    Spin (a.u.)
  --------------------------------------------------------
      1 Fe                    0.700779       4.987554
      2 H                     0.120160      -0.017437
      3 H                     0.127123      -0.008837
      4 H                     0.112811      -0.004748
      5 C                    -0.132995       0.001376
      6 C                    -0.227604       0.005761
      7 H                     0.108004       0.000243
      8 H                     0.115679      -0.008702
      9 C                    -0.128475      -0.002000
     10 C                     0.071983      -0.155523
     11 H                     0.072433       0.000069
     12 H                     0.086632      -0.000487
     13 C                    -0.129617       0.000087
     14 H                     0.083519      -0.000345
     15 C                     0.017908      -0.147014
     16 H                     0.100080       0.000125
     17 O                    -0.012441      -0.131196
     18 H                     0.087709      -0.000079
     19 C                     0.028894      -0.002573
     20 C                    -0.212640      -0.014492
     21 C                     0.017099       0.004285
     22 H                     0.138400      -0.010639
     23 O                    -0.054747      -0.053041
     24 C                     0.030060      -0.006685
     25 H                     0.108425      -0.000101
     26 C                    -0.212553      -0.020348
     27 H                     0.086747      -0.000136
     28 H                     0.071496       0.000444
     29 H                     0.130662      -0.009565
     30 H                     0.107914      -0.001814
     31 H                     0.111845      -0.006016
     32 C                     0.037076      -0.126084
     33 H                     0.119732      -0.008230
     34 H                     0.065659       0.000854
     35 C                    -0.219728       0.004687
     36 H                     0.097281       0.002294
     37 C                    -0.040487      -0.052772
     38 H                     0.118360      -0.000045
     39 C                    -0.039249      -0.029229
     40 H                     0.126617       0.001258
     41 H                     0.123600       0.008625
     42 C                    -0.061357      -0.208317
     43 H                     0.147206       0.008792
  --------------------------------------------------------
  Sum of atomic charges =     2.000000
  Sum of spin   charges =     4.000000

 -----------------------------------------------------------------
                    Cartesian Multipole Moments
 -----------------------------------------------------------------
    Charge (ESU x 10^10)
                 9.6064
    Dipole Moment (Debye)
         X       9.5800      Y       2.1748      Z       1.3374
       Tot       9.9144
    Quadrupole Moments (Debye-Ang)
        XX     -28.9970     XY      -2.8916     YY     -59.9928
        XZ      -4.7394     YZ       0.9889     ZZ    -101.7976
    Octopole Moments (Debye-Ang^2)
       XXX     151.9427    XXY      14.3340    XYY     156.4076
       YYY       8.1900    XXZ     -27.1242    XYZ     -11.2866
       YYZ       3.0688    XZZ      12.1271    YZZ       5.2760
       ZZZ       0.5450
    Hexadecapole Moments (Debye-Ang^3)
      XXXX   -4208.1732   XXXY      19.8305   XXYY    -709.0279
      XYYY     -43.8650   YYYY   -2173.3271   XXXZ    -173.5720
      XXYZ      72.5019   XYYZ     -62.6099   YYYZ     -30.5565
      XXZZ    -990.9157   XYZZ      43.9638   YYZZ    -572.9684
      XZZZ     -51.9070   YZZZ     -24.9275   ZZZZ    -937.6699
 -----------------------------------------------------------------
 Calculating analytic gradient of the SCF energy
 Gradient of SCF Energy
            1           2           3           4           5           6
    1   0.0117726  -0.0005996   0.0004329  -0.0003764   0.0019717  -0.0022499
    2   0.0151418  -0.0002663   0.0000943   0.0000596  -0.0005637  -0.0029090
    3  -0.0060458   0.0010778   0.0001082  -0.0003106  -0.0023594  -0.0017286
            7           8           9          10          11          12
    1   0.0000862   0.0004115   0.0010407   0.0016067   0.0004189   0.0000101
    2  -0.0012907   0.0004850   0.0031234  -0.0037407   0.0004877  -0.0000361
    3   0.0006046  -0.0001779  -0.0016288  -0.0017451   0.0007243  -0.0001245
           13          14          15          16          17          18
    1   0.0016283  -0.0001642  -0.0012686  -0.0001868  -0.0040934   0.0004056
    2  -0.0016259  -0.0000380   0.0027256   0.0008760  -0.0032842  -0.0001201
    3   0.0027755   0.0000958   0.0019803  -0.0009173   0.0007400  -0.0002161
           19          20          21          22          23          24
    1   0.0012437  -0.0020878   0.0056114   0.0006273  -0.0112661  -0.0039334
    2  -0.0014828  -0.0005736   0.0013507  -0.0009903  -0.0195957   0.0081986
    3  -0.0004356   0.0035603   0.0064179  -0.0001572   0.0107331  -0.0124386
           25          26          27          28          29          30
    1   0.0003817  -0.0019152   0.0004237   0.0000729  -0.0000029   0.0005540
    2   0.0001082   0.0041831  -0.0003764   0.0003711   0.0001915  -0.0004589
    3  -0.0003267  -0.0022383   0.0000010  -0.0003960   0.0008902   0.0002781
           31          32          33          34          35          36
    1  -0.0000056   0.0006751  -0.0005144   0.0000927   0.0019907  -0.0000149
    2  -0.0001876  -0.0015987  -0.0003625  -0.0003165   0.0015790   0.0000989
    3   0.0005508   0.0003013   0.0001300   0.0006928  -0.0038825   0.0008391
           37          38          39          40          41          42
    1  -0.0023590  -0.0004414   0.0025561  -0.0001638  -0.0002629  -0.0019702
    2   0.0002087   0.0000549  -0.0002024   0.0003892  -0.0004252  -0.0002003
    3   0.0030361   0.0005944  -0.0033662  -0.0002117   0.0004376   0.0024304
           43
    1  -0.0001376
    2   0.0009182
    3  -0.0002923
 Max gradient component =       1.960E-02
 RMS gradient           =       3.506E-03
 Gradient time:  CPU 22.41 s  wall 2.89 s
 Geometry Optimization Parameters
   NAtoms,    NIC,     NZ,  NCons,   NDum,   NFix, NCnnct, MaxDiis
       43     329       0       0       0       0       0       0

 Cartesian Hessian Update
 Hessian Updated using BFGS Update


** GEOMETRY OPTIMIZATION IN DELOCALIZED INTERNAL COORDINATES **
   Searching for a Minimum

   Optimization Cycle:   3

                       Coordinates (Angstroms)
     ATOM                X               Y               Z
      1  Fe        3.2410954956    2.6689232177   -0.2903025392
      2  H        -4.1489540734    2.3018413890    0.4985535827
      3  H        -1.8488699613    3.2860795175    1.4005651036
      4  H        -3.9008990163    1.5822678527    2.1075784257
      5  C        -3.7760674472    1.3815136833    1.0175203765
      6  C        -1.3920893204    2.2749650562    1.4839287966
      7  H        -5.6882413280    0.3693303181    0.6186752008
      8  H        -1.3844494417    2.0228406757    2.5693793741
      9  C        -4.6036146557    0.1391097603    0.5568701002
     10  C        -2.2660784716    1.2631901274    0.7163722978
     11  H        -0.3566353319    2.3300470959    1.1008068704
     12  H        -4.3878224802    0.6683113222   -1.5572464607
     13  C        -4.2078868436   -0.2175091185   -0.9093197970
     14  H        -4.4092510197   -0.7166824632    1.2390183287
     15  C        -1.7647217375    0.3041882396   -0.1866909734
     16  H        -4.8385402253   -1.0436081879   -1.2996225527
     17  O         0.5638836395    1.3754725923   -0.6775877998
     18  H        -2.3035880456    0.4991163511   -2.9304016762
     19  C        -2.6864844441   -0.6410398653   -1.0412731859
     20  C        -2.2914213662   -0.5522267438   -2.5779192243
     21  C        -0.2566981681    0.0917756511   -0.3741766550
     22  H         0.3915115536    0.1981218746    1.8219382200
     23  O         1.6997282711    0.8760767789    0.2096528173
     24  C         0.7748155344   -0.1958793620    0.8438586738
     25  H        -3.0354753788   -1.1253556280   -3.1663606801
     26  C        -2.4974973795   -2.1400010559   -0.5499760420
     27  H        -2.8531357082   -2.2626321539    0.4926999179
     28  H        -1.2927394019   -0.9888598278   -2.7807449470
     29  H        -0.0582021149   -0.6404995251   -1.1961158690
     30  H        -3.0892953944   -2.8100076858   -1.2052921747
     31  H        -0.3221669050   -2.4542270925    2.0641694008
     32  C         1.4000028587   -1.5859989789    1.0210772332
     33  H         1.0196782509   -1.9611004465    3.1445701882
     34  H        -1.4370993443   -2.4610353961   -0.6024833080
     35  C         0.7866850350   -2.4215004502    2.1567543023
     36  H         2.7699610238   -1.2906076920   -0.6156163401
     37  C         2.4329943933   -1.9978653594    0.1721435827
     38  H         1.1676481424   -3.4600620887    2.1564073406
     39  C         3.1348360921   -3.2842542784    0.2336748909
     40  H         2.8456459770   -4.0050621022    1.0247552261
     41  H         4.4713596904   -2.9437582032   -1.4643937009
     42  C         4.1411555968   -3.6287433855   -0.6557642470
     43  H         4.6540310828   -4.6105578257   -0.5907030251
   Point Group: c1    Number of degrees of freedom:   123


   Energy is  -2013.949059654

 Hessian Updated using BFGS Update

112 Hessian modes will be used to form the next step
  Hessian Eigenvalues:
     0.003207    0.003345    0.004202    0.005203    0.008384    0.008409
     0.008945    0.009794    0.010109    0.011534    0.011729    0.014581
     0.015703    0.015928    0.016486    0.021829    0.022391    0.027727
     0.028756    0.028758    0.030430    0.032283    0.037507    0.039096
     0.043586    0.047817    0.048281    0.049694    0.051907    0.053086
     0.053441    0.054467    0.055177    0.056476    0.059943    0.060775
     0.068975    0.069135    0.070075    0.073604    0.075430    0.078394
     0.078911    0.084007    0.085437    0.095641    0.096927    0.098729
     0.117052    0.121083    0.131748    0.133975    0.154619    0.159757
     0.159990    0.160000    0.160226    0.160772    0.162150    0.188721
     0.202267    0.217049    0.219952    0.220731    0.230178    0.248749
     0.249937    0.249971    0.250086    0.268496    0.272812    0.273576
     0.281131    0.284439    0.284621    0.287663    0.297668    0.299911
     0.310095    0.318404    0.322080    0.323940    0.325604    0.328703
     0.329735    0.329808    0.329952    0.330168    0.330292    0.330511
     0.331008    0.331815    0.332221    0.332293    0.332439    0.333038
     0.333459    0.333600    0.334169    0.335424    0.337674    0.338519
     0.341311    0.342270    0.342472    0.342698    0.345182    0.381439
     0.438288    0.514092    0.538628    0.626623

 Minimum Search - Taking Simple RFO Step
 Searching for Lamda that Minimizes Along All modes
 Value Taken    Lamda =  -0.01710044
 Calculated Step too Large.  Step scaled by  0.418991
 Step Taken.  Stepsize is  0.300000

                             Maximum     Tolerance    Cnvgd?
         Gradient           0.008164      0.000300      NO
         Displacement       0.107987      0.001200      NO
         Energy change     -0.009338      0.000001      NO


 New Cartesian Coordinates Obtained by Inverse Iteration

 Displacement from previous Coordinates is:  0.403475
 ----------------------------------------------------------------
             Standard Nuclear Orientation (Angstroms)
    I     Atom           X                Y                Z
 ----------------------------------------------------------------
    1      Fe      3.1541022322     2.5671493066    -0.2145496566
    2      H      -4.1617338729     2.3125565205     0.4886610391
    3      H      -1.8618587367     3.3121628242     1.3914339018
    4      H      -3.9133095459     1.5998583641     2.1063722610
    5      C      -3.7900772471     1.3947605181     1.0159448948
    6      C      -1.3984931745     2.3035509860     1.4767591859
    7      H      -5.7011698819     0.3784280837     0.6143639077
    8      H      -1.3870645277     2.0497404639     2.5627127898
    9      C      -4.6160957872     0.1444840255     0.5557092806
   10      C      -2.2750416519     1.2829865249     0.7125809461
   11      H      -0.3662417550     2.3560419593     1.0828298181
   12      H      -4.4036755549     0.6710078545    -1.5657061628
   13      C      -4.2202899250    -0.2129163013    -0.9156887191
   14      H      -4.4194574815    -0.7097678334     1.2396812126
   15      C      -1.7698501807     0.3160906994    -0.1937327780
   16      H      -4.8484581771    -1.0455346381    -1.2984084131
   17      O       0.5817876282     1.3841037205    -0.6672560215
   18      H      -2.3089532335     0.4995827471    -2.9469020143
   19      C      -2.6931495408    -0.6345596035    -1.0479025652
   20      C      -2.2939131304    -0.5510846525    -2.5910708567
   21      C      -0.2571981669     0.0965980866    -0.3775567019
   22      H       0.3959487047     0.1868557254     1.8371541533
   23      O       1.7048058754     0.8784503702     0.2210120453
   24      C       0.7802172644    -0.2091784604     0.8576233523
   25      H      -3.0398695583    -1.1289966791    -3.1734589331
   26      C      -2.4988454457    -2.1388863637    -0.5488530487
   27      H      -2.8549025580    -2.2558078070     0.4949040167
   28      H      -1.2942831683    -0.9902418660    -2.7867632240
   29      H      -0.0589902388    -0.6322764745    -1.2059922504
   30      H      -3.0948921217    -2.8058760394    -1.2044206119
   31      H      -0.2966999229    -2.4741501062     2.0961286221
   32      C       1.4123083915    -1.5999293901     1.0289002099
   33      H       1.0607097507    -1.9726123116     3.1615782785
   34      H      -1.4375422021    -2.4566627154    -0.6064480979
   35      C       0.8133288476    -2.4383364824     2.1789406042
   36      H       2.7659147316    -1.3061470372    -0.6340372293
   37      C       2.4425538122    -2.0091871093     0.1656826190
   38      H       1.2024451163    -3.4747507412     2.1699017497
   39      C       3.1549319460    -3.2910788383     0.2324834477
   40      H       2.8832772889    -4.0099970167     1.0333681596
   41      H       4.4714797736    -2.9487945203    -1.4906232674
   42      C       4.1565771910    -3.6320703517    -0.6718564318
   43      H       4.6787758654    -4.6114688545    -0.6045204591
 ----------------------------------------------------------------
 Molecular Point Group                 C1    NOp =  1
 Largest Abelian Subgroup              C1    NOp =  1
 Nuclear Repulsion Energy =  1723.2973866631 hartrees
 There are       82 alpha and       78 beta electrons
 Applying Cartesian multipole field
    Component          Value
    ---------          -----
     (2,0,0)        1.00000E-12
     (0,2,0)        2.00000E-11
     (0,0,2)       -3.00000E-11
 Nucleus-field energy     =     0.0000000270 hartrees
 Requested basis set is STO-3G
 There are 65 shells and 132 basis functions
 A cutoff of  1.0D-12 yielded   1658 shell pairs
 There are      7359 function pairs (      7443 Cartesian)
 Smallest overlap matrix eigenvalue = 2.08E-01
 Guess MOs from SCF MO coefficient file

 -----------------------------------------------------------------------
  General SCF calculation program by
  Eric Jon Sundstrom, Paul Horn, Yuezhi Mao, Dmitri Zuev, Alec White,
  David Stuck, Shaama M.S., Shane Yost, Joonho Lee, David Small,
  Daniel Levine, Susi Lehtola, Hugh Burton, Evgeny Epifanovsky
 -----------------------------------------------------------------------
 Exchange:  B88      Correlation:  LYP
 Using SG-1 standard quadrature grid
 using 8 threads for integral computing
 -------------------------------------------------------
 OpenMP Integral computing Module                
 Release: version 1.0, May 2013, Q-Chem Inc. Pittsburgh 
 -------------------------------------------------------
[...]
    3   0.0000061   0.0000119   0.0000167   0.0000235   0.0000189  -0.0000039
           19          20          21          22          23          24
    1  -0.0000128  -0.0000051  -0.0001094   0.0000143  -0.0000318   0.0000161
    2  -0.0000496  -0.0000149  -0.0000930   0.0000357   0.0000402  -0.0000693
    3   0.0000124   0.0000025   0.0000133  -0.0000240  -0.0000698   0.0000004
           25          26          27          28          29          30
    1  -0.0000143  -0.0000142  -0.0000071  -0.0000144   0.0000166  -0.0000202
    2  -0.0000273   0.0000411   0.0000089  -0.0000298  -0.0000118  -0.0000085
    3   0.0000162   0.0000207   0.0000260   0.0000006   0.0000103   0.0000380
           31          32          33          34          35          36
    1   0.0000143  -0.0000136  -0.0000220  -0.0000125   0.0000406  -0.0000145
    2   0.0000282   0.0000401  -0.0000020  -0.0000070   0.0000253  -0.0000335
    3   0.0000056  -0.0000289  -0.0000122   0.0000097   0.0000106   0.0000036
           37          38          39          40          41          42
    1   0.0000300  -0.0000153  -0.0000122  -0.0000176  -0.0000236  -0.0000358
    2  -0.0000097   0.0000181  -0.0000167  -0.0000105  -0.0000475  -0.0000296
    3   0.0000163   0.0000208  -0.0000142   0.0000117   0.0000141   0.0000364
           43
    1  -0.0000243
    2  -0.0000265
    3   0.0000220
 Max gradient component =       1.094E-04
 RMS gradient           =       2.814E-05
 Gradient time:  CPU 23.29 s  wall 3.01 s
 Geometry Optimization Parameters
   NAtoms,    NIC,     NZ,  NCons,   NDum,   NFix, NCnnct, MaxDiis
       43     329       0       0       0       0       0       0

 Cartesian Hessian Update
 Hessian Updated using BFGS Update


** GEOMETRY OPTIMIZATION IN DELOCALIZED INTERNAL COORDINATES **
   Searching for a Minimum

   Optimization Cycle:  48

                       Coordinates (Angstroms)
     ATOM                X               Y               Z
      1  Fe        2.6170392762    1.8550602737   -0.7527555272
      2  H        -4.1821600016    2.2565682824    0.3525582247
      3  H        -2.0708026707    3.1689904042    1.6639039371
      4  H        -4.1498617272    1.4675617659    1.9527543141
      5  C        -3.8884714609    1.3095740699    0.8794541660
      6  C        -1.5924547208    2.1653289700    1.7123761082
      7  H        -5.7404661060    0.3544400458    0.1943420498
      8  H        -1.7122545118    1.8114483905    2.7633107889
      9  C        -4.6609793664    0.0992228123    0.2564036394
     10  C        -2.3510448037    1.2080100143    0.7643144948
     11  H        -0.5187820490    2.2715032655    1.4747995081
     12  H        -4.2226985007    0.7228975498   -1.8027168868
     13  C        -4.0967590927   -0.1849259796   -1.1731431712
     14  H        -4.5593086946   -0.7933169854    0.9100248136
     15  C        -1.7367757109    0.3210728189   -0.1669496712
     16  H        -4.6623525481   -1.0113681019   -1.6536148614
     17  O         0.5741497038    1.5432338198   -0.3362698525
     18  H        -1.9848906034    0.6123328862   -2.9643049828
     19  C        -2.5590126797   -0.5867240932   -1.1583910892
     20  C        -2.0088113320   -0.4502744829   -2.6478549622
     21  C        -0.2168252488    0.1447683143   -0.2345954296
     22  H         0.0902156448    0.0051785246    2.0313252610
     23  O         1.5078561808    1.1366772674    0.8286419639
     24  C         0.6530262981   -0.2126906240    1.0888772981
     25  H        -2.7008164991   -0.9976709564   -3.3190086303
     26  C        -2.4030159319   -2.1094612881   -0.6907372980
     27  H        -2.8161642515   -2.2540834779    0.3275439116
     28  H        -1.0007107650   -0.8945001147   -2.7726063177
     29  H         0.0777070278   -0.4756076900   -1.1162786319
     30  H        -2.9678842438   -2.7496844344   -1.3982058946
     31  H         1.0513323801   -1.4537898028    3.3909260366
     32  C         1.4914452445   -1.4778759763    1.2297385607
     33  H         2.6592519023   -2.1495032161    2.9693483670
     34  H        -1.3418826481   -2.4307615793   -0.7002134689
     35  C         1.5935904707   -2.0784542743    2.6541478534
     36  H         1.9893959798   -1.6199854429   -0.8963675860
     37  C         2.1170171257   -2.0706180465    0.1126526007
     38  H         1.1652460312   -3.1059430189    2.6783432325
     39  C         2.9280822711   -3.2888815344    0.1762541321
     40  H         3.0887471256   -3.7636391428    1.1654404162
     41  H         3.3575318298   -3.4308487842   -1.9715787525
     42  C         3.4894031153   -3.8684842890   -0.9581282089
     43  H         4.0912561934   -4.8006795524   -0.8847814029
   Point Group: c1    Number of degrees of freedom:   123


   Energy is  -2013.972678435

 Hessian Updated using BFGS Update

123 Hessian modes will be used to form the next step
  Hessian Eigenvalues:
     0.001422    0.002294    0.002587    0.003270    0.005206    0.005651
     0.007087    0.007732    0.009723    0.012340    0.015734    0.015824
     0.017812    0.021541    0.022458    0.023111    0.025999    0.028868
     0.029275    0.031507    0.032176    0.033890    0.040490    0.043792
     0.047028    0.049542    0.050236    0.050523    0.053139    0.053513
     0.054522    0.055351    0.056357    0.057343    0.060131    0.062222
     0.069517    0.069970    0.070508    0.071408    0.073943    0.075652
     0.078626    0.079646    0.084087    0.091635    0.097036    0.098609
     0.102261    0.115596    0.121365    0.131494    0.136529    0.146929
     0.157367    0.159087    0.159653    0.159706    0.159852    0.160013
     0.160084    0.160138    0.160246    0.160453    0.160711    0.160725
     0.161377    0.161773    0.162347    0.163239    0.164591    0.188634
     0.209964    0.221171    0.224443    0.230987    0.237781    0.254483
     0.260128    0.260689    0.276431    0.277255    0.282502    0.287001
     0.294171    0.297706    0.299006    0.305817    0.317504    0.322106
     0.325127    0.327154    0.328757    0.329065    0.329771    0.330065
     0.330122    0.330329    0.331149    0.331989    0.332249    0.332441
     0.332843    0.333003    0.333720    0.334316    0.335629    0.336498
     0.338714    0.340434    0.341773    0.342589    0.342872    0.344902
     0.347993    0.361925    0.385622    0.409075    0.448799    0.480064
     0.542030    0.593537    0.667971

 Minimum Search - Taking Simple RFO Step
 Searching for Lamda that Minimizes Along All modes
 Value Taken    Lamda =   0.00000000
 Step Taken.  Stepsize is  0.008101

                             Maximum     Tolerance    Cnvgd?
         Gradient           0.000054      0.000300     YES
         Displacement       0.002814      0.001200      NO
         Energy change     -0.000001      0.000001     YES

 Final energy is   -2013.97267843461     


 ******************************
 **  OPTIMIZATION CONVERGED  **
 ******************************

                       Coordinates (Angstroms)
     ATOM                X               Y               Z
      1  Fe        2.6170392762    1.8550602737   -0.7527555272
      2  H        -4.1821600016    2.2565682824    0.3525582247
      3  H        -2.0708026707    3.1689904042    1.6639039371
      4  H        -4.1498617272    1.4675617659    1.9527543141
      5  C        -3.8884714609    1.3095740699    0.8794541660
      6  C        -1.5924547208    2.1653289700    1.7123761082
      7  H        -5.7404661060    0.3544400458    0.1943420498
      8  H        -1.7122545118    1.8114483905    2.7633107889
      9  C        -4.6609793664    0.0992228123    0.2564036394
     10  C        -2.3510448037    1.2080100143    0.7643144948
     11  H        -0.5187820490    2.2715032655    1.4747995081
     12  H        -4.2226985007    0.7228975498   -1.8027168868
     13  C        -4.0967590927   -0.1849259796   -1.1731431712
     14  H        -4.5593086946   -0.7933169854    0.9100248136
     15  C        -1.7367757109    0.3210728189   -0.1669496712
     16  H        -4.6623525481   -1.0113681019   -1.6536148614
     17  O         0.5741497038    1.5432338198   -0.3362698525
     18  H        -1.9848906034    0.6123328862   -2.9643049828
     19  C        -2.5590126797   -0.5867240932   -1.1583910892
     20  C        -2.0088113320   -0.4502744829   -2.6478549622
     21  C        -0.2168252488    0.1447683143   -0.2345954296
     22  H         0.0902156448    0.0051785246    2.0313252610
     23  O         1.5078561808    1.1366772674    0.8286419639
     24  C         0.6530262981   -0.2126906240    1.0888772981
     25  H        -2.7008164991   -0.9976709564   -3.3190086303
     26  C        -2.4030159319   -2.1094612881   -0.6907372980
     27  H        -2.8161642515   -2.2540834779    0.3275439116
     28  H        -1.0007107650   -0.8945001147   -2.7726063177
     29  H         0.0777070278   -0.4756076900   -1.1162786319
     30  H        -2.9678842438   -2.7496844344   -1.3982058946
     31  H         1.0513323801   -1.4537898028    3.3909260366
     32  C         1.4914452445   -1.4778759763    1.2297385607
     33  H         2.6592519023   -2.1495032161    2.9693483670
     34  H        -1.3418826481   -2.4307615793   -0.7002134689
     35  C         1.5935904707   -2.0784542743    2.6541478534
     36  H         1.9893959798   -1.6199854429   -0.8963675860
     37  C         2.1170171257   -2.0706180465    0.1126526007
     38  H         1.1652460312   -3.1059430189    2.6783432325
     39  C         2.9280822711   -3.2888815344    0.1762541321
     40  H         3.0887471256   -3.7636391428    1.1654404162
     41  H         3.3575318298   -3.4308487842   -1.9715787525
     42  C         3.4894031153   -3.8684842890   -0.9581282089
     43  H         4.0912561934   -4.8006795524   -0.8847814029

Z-matrix Print:
$molecule
2 5
Fe
O  1 2.060869
O  2 1.547293 1 69.847381
C  3 1.609871 2 91.185621 1 131.574825 0
H  4 1.117578 3 107.631787 2 -107.265614 0
C  4 1.531636 3 112.977910 2 129.683719 0
C  6 1.425215 4 121.884305 3 -50.830292 0
C  7 1.545074 6 121.229586 4 -176.174332 0
H  8 1.115911 7 108.304155 6 143.750608 0
H  8 1.122796 7 106.304724 6 -103.057848 0
C  7 1.546202 6 125.064343 4 5.354616 0
H  11 1.104757 7 113.857051 6 12.100134 0
H  11 1.112880 7 108.710855 6 133.510187 0
H  11 1.115369 7 109.183710 6 -110.896986 0
C  8 1.565219 7 114.243099 6 18.007470 0
H  15 1.110939 8 109.992296 7 73.705329 0
H  15 1.110981 8 108.914200 7 -168.307978 0
C  15 1.562910 8 109.056950 7 -48.293107 0
H  18 1.110746 15 110.310247 8 -177.409195 0
H  18 1.111921 15 109.181689 8 -59.183087 0
C  6 1.575793 4 115.069094 3 131.416483 0
C  21 1.593688 6 111.011580 4 -51.537152 0
H  22 1.108585 21 107.941101 6 -172.558491 0
H  22 1.108678 21 112.629868 6 68.856477 0
H  22 1.108985 21 110.865449 6 -54.104794 0
C  21 1.600551 6 108.263784 4 67.720095 0
H  26 1.108379 21 110.869428 6 61.748956 0
H  26 1.108750 21 111.498623 6 -59.989704 0
H  26 1.108816 21 108.254978 6 -179.078857 0
C  2 1.618410 1 134.290782 3 70.963462 0
H  30 1.119121 2 103.811375 1 -168.988416 0
C  30 1.524297 2 114.605447 1 69.628816 0
C  32 1.410874 30 121.293537 2 -72.973236 0
H  33 1.112420 32 119.809439 30 -0.853241 0
C  33 1.464936 32 124.089832 30 -179.598702 0
H  35 1.108917 33 118.358114 32 -1.852272 0
C  35 1.392065 33 122.284416 32 177.658459 0
H  37 1.111754 35 122.080485 33 0.513464 0
H  37 1.112023 35 120.898556 33 -179.256618 0
C  32 1.549216 30 116.295402 2 107.992890 0
H  40 1.107742 32 111.140194 30 -2.133866 0
H  40 1.113462 32 110.631012 30 118.491995 0
H  40 1.113568 32 110.370084 30 -122.476591 0
$end

 
 --------------------------------------------------------------
 
                    Orbital Energies (a.u.)
 --------------------------------------------------------------
 
 Alpha MOs
 -- Occupied --
******* -29.688 -26.241 -26.240 -26.238 -19.001 -18.999 -10.152
-10.149 -10.080 -10.075 -10.071 -10.059 -10.051 -10.046 -10.030
-10.023 -10.022 -10.009  -9.982  -9.979  -9.975  -9.973  -3.885
 -2.724  -2.721  -2.716  -1.315  -1.099  -1.008  -0.980  -0.947
 -0.917  -0.909  -0.871  -0.851  -0.845  -0.809  -0.803  -0.799
 -0.770  -0.737  -0.726  -0.716  -0.711  -0.699  -0.683  -0.643
 -0.635  -0.627  -0.620  -0.617  -0.600  -0.596  -0.593  -0.584
 -0.582  -0.576  -0.568  -0.561  -0.560  -0.558  -0.553  -0.552
 -0.551  -0.550  -0.547  -0.541  -0.537  -0.533  -0.528  -0.523
 -0.508  -0.505  -0.498  -0.495  -0.464  -0.461  -0.459  -0.450
 -0.440  -0.422
 -- Virtual --
 -0.413  -0.335  -0.329  -0.293  -0.275  -0.263  -0.213  -0.166
 -0.130  -0.113  -0.074  -0.012  -0.009  -0.007   0.017   0.034
  0.045   0.050   0.060   0.066   0.069   0.080   0.098   0.099
  0.108   0.123   0.128   0.129   0.132   0.139   0.141   0.158
  0.159   0.168   0.174   0.180   0.187   0.189   0.196   0.204
  0.211   0.220   0.224   0.226   0.240   0.250   0.255   0.298
  0.310   0.336
 
 Beta MOs
 -- Occupied --
******* -29.645 -26.207 -26.206 -26.204 -19.002 -19.000 -10.151
-10.149 -10.082 -10.076 -10.073 -10.061 -10.051 -10.048 -10.030
-10.022 -10.022 -10.009  -9.982  -9.980  -9.975  -9.973  -3.660
 -2.498  -2.496  -2.495  -1.315  -1.100  -1.010  -0.984  -0.949
 -0.919  -0.911  -0.872  -0.854  -0.846  -0.810  -0.804  -0.800
 -0.772  -0.738  -0.727  -0.717  -0.712  -0.699  -0.684  -0.644
 -0.636  -0.627  -0.620  -0.617  -0.600  -0.597  -0.594  -0.585
 -0.583  -0.575  -0.569  -0.561  -0.560  -0.558  -0.553  -0.547
 -0.539  -0.529  -0.523  -0.512  -0.508  -0.500  -0.496  -0.471
 -0.462  -0.460  -0.450  -0.445  -0.434  -0.425
 -- Virtual --
 -0.344  -0.336  -0.331  -0.331  -0.327  -0.327  -0.317  -0.295
 -0.277  -0.261  -0.223  -0.174  -0.132  -0.106  -0.077  -0.013
 -0.010  -0.008   0.011   0.032   0.043   0.047   0.058   0.064
  0.067   0.078   0.094   0.098   0.106   0.121   0.126   0.128
  0.131   0.138   0.140   0.156   0.158   0.167   0.174   0.179
  0.186   0.188   0.194   0.203   0.211   0.219   0.223   0.224
  0.239   0.249   0.255   0.296   0.306   0.333
 --------------------------------------------------------------
 
          Ground-State Mulliken Net Atomic Charges

     Atom                 Charge (a.u.)    Spin (a.u.)
  --------------------------------------------------------
      1 Fe                    0.603339       4.794493
      2 H                     0.125692      -0.017431
      3 H                     0.132910      -0.006765
      4 H                     0.119351      -0.005038
      5 C                    -0.132185       0.000201
      6 C                    -0.228251       0.006047
      7 H                     0.112111       0.000118
      8 H                     0.123780      -0.009588
      9 C                    -0.128238      -0.002856
     10 C                     0.083626      -0.148584
     11 H                     0.082706      -0.000355
     12 H                     0.089888      -0.000901
     13 C                    -0.129180      -0.001435
     14 H                     0.088104      -0.000293
     15 C                     0.022571      -0.173482
     16 H                     0.103187       0.000035
     17 O                    -0.042800      -0.025046
     18 H                     0.089999      -0.000529
     19 C                     0.029217      -0.005255
     20 C                    -0.213687      -0.014436
     21 C                     0.020510       0.014235
     22 H                     0.144326       0.000086
     23 O                    -0.052121      -0.019076
     24 C                     0.021451       0.012661
     25 H                     0.112986      -0.000739
     26 C                    -0.211074      -0.027474
     27 H                     0.091751       0.000324
     28 H                     0.068297       0.000598
     29 H                     0.128937      -0.002259
     30 H                     0.111278      -0.002380
     31 H                     0.108507      -0.000020
     32 C                     0.033321      -0.135597
     33 H                     0.124955      -0.009712
     34 H                     0.066436       0.000921
     35 C                    -0.219249       0.003607
     36 H                     0.096291       0.001289
     37 C                    -0.031730      -0.027800
     38 H                     0.125125      -0.006453
     39 C                    -0.039228      -0.033272
     40 H                     0.133417       0.001379
     41 H                     0.130057       0.007225
     42 C                    -0.050566      -0.173790
     43 H                     0.154185       0.007351
  --------------------------------------------------------
  Sum of atomic charges =     2.000000
  Sum of spin   charges =     4.000000

 -----------------------------------------------------------------
                    Cartesian Multipole Moments
 -----------------------------------------------------------------
    Charge (ESU x 10^10)
                 9.6064
    Dipole Moment (Debye)
         X       4.4161      Y      -2.2907      Z       0.8025
       Tot       5.0391
    Quadrupole Moments (Debye-Ang)
        XX     -48.3348     XY     -21.9919     YY     -69.3186
        XZ      -3.4573     YZ       2.9151     ZZ     -96.1713
    Octopole Moments (Debye-Ang^2)
       XXX      57.3250    XXY     -25.7114    XYY     124.8838
       YYY     -16.5558    XXZ     -11.2433    XYZ     -11.3064
       YYZ      -2.2393    XZZ      26.5565    YZZ       4.3740
       ZZZ      17.8030
    Hexadecapole Moments (Debye-Ang^3)
      XXXX   -4029.6598   XXXY      39.3096   XXYY    -726.8023
      XYYY     -37.3539   YYYY   -1850.3792   XXXZ    -135.4176
      XXYZ      73.1340   XYYZ     -88.2774   YYYZ      19.9809
      XXZZ    -908.8305   XYZZ      60.9083   YYZZ    -528.5545
      XZZZ     -75.4007   YZZZ     -31.0453   ZZZZ   -1175.1079
 -----------------------------------------------------------------
Archival summary:
1\1\cub-0-3.local\OPT\ProcedureUnspecified\STO-3G\e121624(2+,5)\c295_lal\TueNov2723:16:242018TueNov2723:16:242018\0\\#,OPT,ProcedureUnspecified,STO-3G,\\2,5\Fe\O,1,2.06087\O,2,1.54729,1,69.8474\C,3,1.60987,2,91.1856,1,131.575,0\H,4,1.11758,3,107.632,2,-107.266,0\C,4,1.53164,3,112.978,2,129.684,0\C,6,1.42521,4,121.884,3,-50.8303,0\C,7,1.54507,6,121.23,4,-176.174,0\H,8,1.11591,7,108.304,6,143.751,0\H,8,1.1228,7,106.305,6,-103.058,0\C,7,1.5462,6,125.064,4,5.35462,0\H,11,1.10476,7,113.857,6,12.1001,0\H,11,1.11288,7,108.711,6,133.51,0\H,11,1.11537,7,109.184,6,-110.897,0\C,8,1.56522,7,114.243,6,18.0075,0\H,15,1.11094,8,109.992,7,73.7053,0\H,15,1.11098,8,108.914,7,-168.308,0\C,15,1.56291,8,109.057,7,-48.2931,0\H,18,1.11075,15,110.31,8,-177.409,0\H,18,1.11192,15,109.182,8,-59.1831,0\C,6,1.57579,4,115.069,3,131.416,0\C,21,1.59369,6,111.012,4,-51.5372,0\H,22,1.10859,21,107.941,6,-172.558,0\H,22,1.10868,21,112.63,6,68.8565,0\H,22,1.10898,21,110.865,6,-54.1048,0\C,21,1.60055,6,108.264,4,67.7201,0\H,26,1.10838,21,110.869,6,61.749,0\H,26,1.10875,21,111.499,6,-59.9897,0\H,26,1.10882,21,108.255,6,-179.079,0\C,2,1.61841,1,134.291,3,70.9635,0\H,30,1.11912,2,103.811,1,-168.988,0\C,30,1.5243,2,114.605,1,69.6288,0\C,32,1.41087,30,121.294,2,-72.9732,0\H,33,1.11242,32,119.809,30,-0.853241,0\C,33,1.46494,32,124.09,30,-179.599,0\H,35,1.10892,33,118.358,32,-1.85227,0\C,35,1.39206,33,122.284,32,177.658,0\H,37,1.11175,35,122.08,33,0.513464,0\H,37,1.11202,35,120.899,33,-179.257,0\C,32,1.54922,30,116.295,2,107.993,0\H,40,1.10774,32,111.14,30,-2.13387,0\H,40,1.11346,32,110.631,30,118.492,0\H,40,1.11357,32,110.37,30,-122.477,0\\\@

 Total job time:  1614.41s(wall), 12862.79s(cpu) 
 Tue Nov 27 23:16:24 2018

        *************************************************************
        *                                                           *
        *  Thank you very much for using Q-Chem.  Have a nice day.  *
        *                                                           *
        *************************************************************


