
Running Job 1 of 1 car_1_2_opt_631g_gga.in
qchem car_1_2_opt_631g_gga.in_4772.0 /scr/c295_lal/137028/qchem4772/ 1
/usr/software/qchem_511/exe/qcprog.exe_s car_1_2_opt_631g_gga.in_4772.0 /scr/c295_lal/137028/qchem4772/
Check license passed

                  Welcome to Q-Chem
     A Quantum Leap Into The Future Of Chemistry


 Q-Chem 5.1, Q-Chem, Inc., Pleasanton, CA (2018)

 Yihan Shao,  Zhengting Gan,  E. Epifanovsky,  A. T. B. Gilbert,  M. Wormit,  
 J. Kussmann,  A. W. Lange,  A. Behn,  Jia Deng,  Xintian Feng,  D. Ghosh,  
 M. Goldey,  P. R. Horn,  L. D. Jacobson,  I. Kaliman,  T. Kus,  A. Landau,  
 Jie Liu,  E. I. Proynov,  R. M. Richard,  R. P. Steele,  E. J. Sundstrom,  
 H. L. Woodcock III,  P. M. Zimmerman,  D. Zuev,  B. Albrecht,  E. Alguire,  
 S. A. Baeppler,  D. Barton,  Z. Benda,  Y. A. Bernard,  E. J. Berquist,  
 K. B. Bravaya,  H. Burton,  D. Casanova,  Chun-Min Chang,  Yunqing Chen,  
 A. Chien,  K. D. Closser,  M. P. Coons,  S. Coriani,  S. Dasgupta,  
 A. L. Dempwolff,  M. Diedenhofen,  Hainam Do,  R. G. Edgar,  Po-Tung Fang,  
 S. Faraji,  S. Fatehi,  Qingguo Feng,  K. D. Fenk,  J. Fosso-Tande,  
 Qinghui Ge,  A. Ghysels,  G. Gidofalvi,  J. Gomes,  J. Gonthier,  A. Gunina,  
 D. Hait,  M. W. D. Hanson-Heine,  P. H. P. Harbach,  A. W. Hauser,  
 J. E. Herr,  E. G. Hohenstein,  Z. C. Holden,  Kerwin Hui,  B. C. Huynh,  
 T.-C. Jagau,  Hyunjun Ji,  B. Kaduk,  K. Khistyaev,  Jaehoon Kim,  
 P. Klunzinger,  K. Koh,  D. Kosenkov,  L. Koulias,  T. Kowalczyk,  
 C. M. Krauter,  A. Kunitsa,  Ka Un Lao,  A. Laurent,  K. V. Lawler,  
 Joonho Lee,  D. Lefrancois,  S. Lehtola,  D. S. Levine,  Yi-Pei Li,  
 You-Sheng Lin,  Fenglai Liu,  E. Livshits,  A. Luenser,  P. Manohar,  
 E. Mansoor,  S. F. Manzer,  Shan-Ping Mao,  Yuezhi Mao,  N. Mardirossian,  
 A. V. Marenich,  T. Markovich,  L. A. Martinez-Martinez,  S. A. Maurer,  
 N. J. Mayhall,  S. C. McKenzie,  J.-M. Mewes,  A. F. Morrison,  
 J. W. Mullinax,  K. Nanda,  T. S. Nguyen-Beck,  R. Olivares-Amaya,  
 J. A. Parkhill,  T. M. Perrine,  F. Plasser,  P. Pokhilko,  S. Prager,  
 A. Prociuk,  E. Ramos,  D. R. Rehn,  F. Rob,  M. Schneider,  N. Sergueev,  
 S. M. Sharada,  S. Sharma,  D. W. Small,  T. Stauch,  T. Stein,  
 Yu-Chuan Su,  A. J. W. Thom,  A. Tkatchenko,  T. Tsuchimochi,  N. M. Tubman,  
 L. Vogt,  M. L. Vidal,  O. Vydrov,  M. A. Watson,  J. Wenzel,  
 M. de Wergifosse,  T. A. Wesolowski,  A. White,  J. Witte,  A. Yamada,  
 Jun Yang,  K. Yao,  S. Yeganeh,  S. R. Yost,  Zhi-Qiang You,  A. Zech,  
 Igor Ying Zhang,  Xing Zhang,  Yan Zhao,  Ying Zhu,  B. R. Brooks,  
 G. K. L. Chan,  C. J. Cramer,  M. S. Gordon,  W. J. Hehre,  A. Klamt,  
 M. W. Schmidt,  C. D. Sherrill,  D. G. Truhlar,  A. Aspuru-Guzik,  R. Baer,  
 A. T. Bell,  N. A. Besley,  Jeng-Da Chai,  A. E. DePrince, III,  
 R. A. DiStasio Jr.,  A. Dreuw,  B. D. Dunietz,  T. R. Furlani,  
 Chao-Ping Hsu,  Yousung Jung,  Jing Kong,  D. S. Lambrecht,  WanZhen Liang,  
 C. Ochsenfeld,  V. A. Rassolov,  L. V. Slipchenko,  J. E. Subotnik,  
 T. Van Voorhis,  J. M. Herbert,  A. I. Krylov,  P. M. W. Gill,  M. Head-Gordon

 Contributors to earlier versions of Q-Chem not listed above: 
 R. D. Adamson,  B. Austin,  J. Baker,  G. J. O. Beran,  K. Brandhorst,  
 S. T. Brown,  E. F. C. Byrd,  A. K. Chakraborty,  C.-L. Cheng,  
 Siu Hung Chien,  D. M. Chipman,  D. L. Crittenden,  H. Dachsel,  
 R. J. Doerksen,  A. D. Dutoi,  L. Fusti-Molnar,  W. A. Goddard III,  
 A. Golubeva-Zadorozhnaya,  S. R. Gwaltney,  G. Hawkins,  A. Heyden,  
 S. Hirata,  G. Kedziora,  F. J. Keil,  C. Kelley,  Jihan Kim,  R. A. King,  
 R. Z. Khaliullin,  P. P. Korambath,  W. Kurlancheek,  A. M. Lee,  M. S. Lee,  
 S. V. Levchenko,  Ching Yeh Lin,  D. Liotard,  R. C. Lochan,  I. Lotan,  
 P. E. Maslen,  N. Nair,  D. P. O'Neill,  D. Neuhauser,  E. Neuscamman,  
 C. M. Oana,  R. Olson,  B. Peters,  R. Peverati,  P. A. Pieniazek,  
 Y. M. Rhee,  J. Ritchie,  M. A. Rohrdanz,  E. Rosta,  N. J. Russ,  
 H. F. Schaefer III,  N. E. Schultz,  N. Shenvi,  A. C. Simmonett,  A. Sodt,  
 D. Stuck,  K. S. Thanthiriwatte,  V. Vanovschi,  Tao Wang,  A. Warshel,  
 C. F. Williams,  Q. Wu,  X. Xu,  W. Zhang

 Please cite Q-Chem as follows:
 Y. Shao et al., Mol. Phys. 113, 184-215 (2015)
 DOI: 10.1080/00268976.2014.952696

 Q-Chem 5.1.1 for Intel X86 EM64T Linux

 Parts of Q-Chem use Armadillo 8.300.2 (Tropical Shenanigans).
 http://arma.sourceforge.net/

 Q-Chem begins on Wed Oct 31 00:19:51 2018  

Host: cub-0-11.local
0

     Scratch files written to /scr/c295_lal/137028/qchem4772//
 Aug318 |scratch|qcdevops|jenkins|workspace|build_RNUM -1
Processing $rem in /usr/software/qchem_511/config/preferences.
 MEM_TOTAL  2000 
Input Ideriv = 2
Curr. Ideriv = -1
Max.  Ideriv = 2

Checking the input file for inconsistencies... 	...done.

--------------------------------------------------------------
User input:
--------------------------------------------------------------
$molecule
0 1
C         -0.18222        1.96702       -0.65485
C         -0.70759        1.24622        0.33994
C          0.16078        0.40055        1.20033
C         -0.24823       -0.37372        2.23738
C          0.80217       -1.14753        2.97312
C          0.54069       -1.97432        4.00706
H         -0.82439        2.58151       -1.27787
H          0.88426        1.95457       -0.85972
H         -1.77731        1.31098        0.48098
H          1.22254        0.41564        0.96178
H          1.81918       -1.05905        2.61142
C          1.55966       -2.80751        4.74377
H         -0.49474       -2.12621        4.27738
C          2.85364       -2.39678        5.00666
C          3.84592       -3.27947        5.74849
C          3.19677       -4.40271        6.54915
H          4.43829       -2.68421        6.47743
H          4.55524       -3.68631        4.99520
C          2.22171       -5.12979        5.65100
H          2.67020       -3.99698        7.43687
H          3.98956       -5.09120        6.91354
C          1.05462       -4.19792        5.21596
H          1.82177       -6.03679        6.15591
H          2.79781       -5.47522        4.76170
C          3.42351       -1.02929        4.68005
H          2.69937       -0.27480        4.33907
H          4.25291       -1.12833        3.94887
H          3.83010       -0.58074        5.61098
C          0.05793       -4.00402        6.38493
H          0.52257       -3.46135        7.23269
H         -0.30473       -4.98670        6.75626
H         -0.83348       -3.42295        6.07303
C          0.32568       -4.93834        4.06713
H          1.00482       -5.07622        3.19800
H         -0.57016       -4.38521        3.71664
H         -0.02076       -5.94019        4.40277
C         -1.69697       -0.48255        2.67467
H         -2.40939        0.12116        2.08956
H         -1.78665       -0.15345        3.73120
H         -2.02830       -1.53891        2.59208
$end

$rem
BASIS = 6-31G
METHOD  = BLYP
JOBTYPE = OPT
$end
--------------------------------------------------------------
 ----------------------------------------------------------------
             Standard Nuclear Orientation (Angstroms)
    I     Atom           X                Y                Z
 ----------------------------------------------------------------
    1      C       6.0987263362    -0.8168809993    -0.6174914829
    2      C       5.1507774082    -0.0020811397    -0.1456149739
    3      C       3.7150986101    -0.3723313978    -0.2516163560
    4      C       2.6626182375     0.3641762339     0.1866729195
    5      C       1.2923309005    -0.2030894995    -0.0229878196
    6      C       0.1548330079     0.4261337832     0.3391751586
    7      H       7.1444676657    -0.5378573313    -0.5356070890
    8      H       5.8479067159    -1.7635059459    -1.0870626044
    9      H       5.4795251504     0.9223585077     0.3079523065
   10      H       3.5064232401    -1.3279568918    -0.7287983060
   11      H       1.2293835788    -1.1547009044    -0.5362502371
   12      C      -1.2443345822    -0.0860388800     0.1041086170
   13      H       0.2425275829     1.4214074952     0.7514840952
   14      C      -1.6036351655    -1.4196751884     0.1712786496
   15      C      -3.0295478449    -1.8854067462    -0.0815852071
   16      C      -4.0724607081    -0.7802804693     0.0414957726
   17      H      -3.3254019422    -2.6707245739     0.6480287119
   18      H      -3.0536830959    -2.3443336206    -1.0939601800
   19      C      -3.6168851677     0.4024981019    -0.7828503507
   20      H      -4.2024397270    -0.4809117218     1.1014124692
   21      H      -5.0500347380    -1.1642302013    -0.3221608727
   22      C      -2.2987923313     1.0068934139    -0.2197534247
   23      H      -4.4096241793     1.1817646783    -0.8257872127
   24      H      -3.4634234927     0.0315065072    -1.8225052626
   25      C      -0.6833462152    -2.5571195043     0.5722069292
   26      H       0.2982371961    -2.2639414995     0.9727589536
   27      H      -0.5605059305    -3.2630233347    -0.2757008020
   28      H      -1.1438994462    -3.1064760128     1.4202879061
   29      C      -2.5882255058     1.8263206192     1.0617482412
   30      H      -2.9520790424     1.1808145779     1.8863758121
   31      H      -3.3562463664     2.6045365303     0.8627704028
   32      H      -1.6815680262     2.3480130856     1.4296407911
   33      C      -1.7738931149     1.9722478465    -1.3115213950
   34      H      -1.5326112738     1.4151869763    -2.2427008895
   35      H      -0.8587410660     2.5099311778    -0.9879186987
   36      H      -2.5368301458     2.7441360845    -1.5533766007
   37      C       2.8151115101     1.7104594960     0.8694476120
   38      H       3.8535810219     2.0575858693     0.9937298973
   39      H       2.3682707293     1.6593607290     1.8844979487
   40      H       2.2865133426     2.4861057989     0.2766121233
 ----------------------------------------------------------------
 Molecular Point Group                 C1    NOp =  1
 Largest Abelian Subgroup              C1    NOp =  1
 Nuclear Repulsion Energy =  1068.1550306222 hartrees
 There are       60 alpha and       60 beta electrons
 Requested basis set is 6-31G
 There are 96 shells and 192 basis functions

 Total QAlloc Memory Limit   2000 MB
 Mega-Array Size       188 MB
 MEM_STATIC part       192 MB
 A cutoff of  1.0D-11 yielded   3260 shell pairs
 There are     14402 function pairs
 
 -------------------------------------------------------
 OpenMP Integral Computing Module                       
 Release: version 1.0, May 2013, Q-Chem Inc. Pittsburgh 
 -------------------------------------------------------
 Integral Job Info:
 Integral job number is                      11
 Integral operator is                         1
 short-range coefficients                     0
 long-range coefficients              100000000
 Omega coefficients                           0
 if combine SR and LR in K                    0
 Integral screening is                        0
 Integral computing path is                   2
 max size of driver memory is            800000
 size of driver memory is                 45569
 size of scratch memory is              2040132
 max col of scratch BK array                289
 max len of scratch array in speh3           22
 max len of scratch index in speh4            8
 max int batch size is                      520
 min int batch size is                       52
 fixed nKL is                                52
 max L of basis functions is                  1
 order of int derivative is                   0
 number of shells is                         96
 number of basis is                         192
 number of cartesian basis is               192
 number of contracted shell pairs          3260
 number of primitive shell pairs          12044
 maxK2 (contraction) of shell pair           36
 max number of K2 of shell pair               1
 max number of CS2 of shell pair            593
 max number of PS2 of shell pair           2328
 mem total for path MDJ                  552614
 -------------------------------------------------------
 Smallest overlap matrix eigenvalue = 1.90E-03

 Scale SEOQF with 1.000000e-02/1.000000e-01/1.000000e-01

 Standard Electronic Orientation quadrupole field applied
 Nucleus-field energy     =     0.0000000149 hartrees
 Guess from superposition of atomic densities
 Warning:  Energy on first SCF cycle will be non-variational
 SAD guess density has 120.000000 electrons

 -----------------------------------------------------------------------
  General SCF calculation program by
  Eric Jon Sundstrom, Paul Horn, Yuezhi Mao, Dmitri Zuev, Alec White,
  David Stuck, Shaama M.S., Shane Yost, Joonho Lee, David Small,
  Daniel Levine, Susi Lehtola, Hugh Burton, Evgeny Epifanovsky
 -----------------------------------------------------------------------
 Exchange:  B88      Correlation:  LYP
 Using SG-1 standard quadrature grid
 using 2 threads for integral computing
 -------------------------------------------------------
 OpenMP Integral computing Module                
 Release: version 1.0, May 2013, Q-Chem Inc. Pittsburgh 
 -------------------------------------------------------
 -------------------------------------------------------
 OpenMP BLAS3 based DFT computing Module                
 Release: version 1.0, May 2013, Q-Chem Inc. Pittsburgh 
 -------------------------------------------------------
 A restricted SCF calculation will be
 performed using DIIS
 SCF converges when DIIS error is below 1.0e-08
 ---------------------------------------
  Cycle       Energy         DIIS error
 ---------------------------------------
    1    -625.7537930497      6.53e-02  
    2    -623.1036766687      9.57e-03  
    3    -622.7470668291      1.24e-02  
    4    -623.5839882448      1.51e-03  
    5    -623.5914315364      9.71e-04  
    6    -623.5958717347      3.51e-04  
    7    -623.5965210933      7.06e-05  
    8    -623.5965361724      4.64e-05  
    9    -623.5965473263      1.34e-05  
   10    -623.5965482433      4.88e-06  
   11    -623.5965483561      2.10e-06  
   12    -623.5965483786      3.22e-07  
   13    -623.5965483790      2.22e-07  
   14    -623.5965483793      5.19e-08  
   15    -623.5965483793      1.72e-08  
   16    -623.5965483793      1.67e-09  Convergence criterion met
 ---------------------------------------
 SCF time:   CPU 96.95s  wall 49.00s 
 SCF   energy in the final basis set =     -623.5965483793
 Total energy in the final basis set =     -623.5965483793
 
 --------------------------------------------------------------
 
                    Orbital Energies (a.u.)
 --------------------------------------------------------------
 
 Alpha MOs
 -- Occupied --
 -9.928  -9.927  -9.920  -9.917  -9.917  -9.915  -9.913  -9.912
 -9.912  -9.911  -9.906  -9.905  -9.905  -9.904  -9.903  -9.900
 -0.758  -0.734  -0.698  -0.697  -0.676  -0.644  -0.611  -0.602
 -0.599  -0.591  -0.539  -0.512  -0.495  -0.480  -0.463  -0.439
 -0.419  -0.402  -0.398  -0.386  -0.379  -0.367  -0.366  -0.364
 -0.350  -0.343  -0.341  -0.337  -0.333  -0.329  -0.319  -0.313
 -0.305  -0.297  -0.294  -0.285  -0.283  -0.272  -0.268  -0.254
 -0.245  -0.237  -0.195  -0.157
 -- Virtual --
 -0.056  -0.001   0.042   0.059   0.069   0.072   0.084   0.089
  0.098   0.101   0.105   0.114   0.118   0.124   0.132   0.137
  0.144   0.152   0.156   0.162   0.165   0.167   0.171   0.182
  0.186   0.188   0.194   0.200   0.202   0.207   0.216   0.225
  0.230   0.248   0.253   0.261   0.265   0.303   0.318   0.362
  0.367   0.382   0.408   0.439   0.483   0.488   0.490   0.495
  0.504   0.514   0.525   0.528   0.536   0.542   0.556   0.562
  0.571   0.576   0.580   0.584   0.616   0.622   0.625   0.634
  0.639   0.641   0.653   0.657   0.671   0.675   0.689   0.703
  0.712   0.714   0.728   0.731   0.741   0.767   0.778   0.780
  0.790   0.806   0.808   0.814   0.835   0.840   0.851   0.859
  0.864   0.879   0.885   0.887   0.901   0.908   0.916   0.918
  0.924   0.931   0.933   0.944   0.947   0.953   0.960   0.964
  0.968   0.983   0.994   1.031   1.055   1.064   1.090   1.110
  1.142   1.147   1.162   1.184   1.206   1.211   1.241   1.267
  1.287   1.311   1.348   1.408   1.432   1.452   1.527   1.562
  1.575   1.660   1.742   1.837
 --------------------------------------------------------------
 
          Ground-State Mulliken Net Atomic Charges

     Atom                 Charge (a.u.)
  ----------------------------------------
      1 C                    -0.279441
      2 C                    -0.022360
      3 C                    -0.171029
      4 C                     0.154082
      5 C                    -0.116363
      6 C                    -0.148833
      7 H                     0.099577
      8 H                     0.105626
      9 H                     0.095796
     10 H                     0.086812
     11 H                     0.102402
     12 C                     0.101512
     13 H                     0.096317
     14 C                     0.083994
     15 C                    -0.274254
     16 C                    -0.215439
     17 H                     0.110049
     18 H                     0.120146
     19 C                    -0.203273
     20 H                     0.113971
     21 H                     0.098168
     22 C                    -0.001078
     23 H                     0.095689
     24 H                     0.103680
     25 C                    -0.438622
     26 H                     0.138918
     27 H                     0.125443
     28 H                     0.120654
     29 C                    -0.366185
     30 H                     0.120762
     31 H                     0.112066
     32 H                     0.116658
     33 C                    -0.353575
     34 H                     0.116296
     35 H                     0.107965
     36 H                     0.108137
     37 C                    -0.450444
     38 H                     0.129731
     39 H                     0.138545
     40 H                     0.137898
  ----------------------------------------
  Sum of atomic charges =    -0.000000

 -----------------------------------------------------------------
                    Cartesian Multipole Moments
 -----------------------------------------------------------------
    Charge (ESU x 10^10)
                -0.0000
    Dipole Moment (Debye)
         X      -0.5816      Y       0.1404      Z       0.2108
       Tot       0.6344
    Quadrupole Moments (Debye-Ang)
        XX     -98.8302     XY       2.4027     YY     -97.3065
        XZ       1.0495     YZ       2.6958     ZZ    -102.7728
    Octopole Moments (Debye-Ang^2)
       XXX       5.1036    XXY       8.3161    XYY       3.4801
       YYY      -1.9628    XXZ       2.1363    XYZ       8.8984
       YYZ      -0.7992    XZZ      -7.4395    YZZ      -2.3278
       ZZZ       2.1649
    Hexadecapole Moments (Debye-Ang^3)
      XXXX   -5964.3583   XXXY      58.8693   XXYY   -1210.8533
      XYYY       4.2762   YYYY   -1317.9860   XXXZ      15.3547
      XXYZ      40.9521   XYYZ      -5.6050   YYYZ       6.2158
      XXZZ   -1129.1758   XYZZ       5.3726   YYZZ    -288.2639
      XZZZ       9.8343   YZZZ       3.8718   ZZZZ    -421.4891
 -----------------------------------------------------------------
 Calculating analytic gradient of the SCF energy
 Gradient of SCF Energy
            1           2           3           4           5           6
    1  -0.0176088   0.0310157  -0.0289954   0.0209242  -0.0270216   0.0297987
    2   0.0084784   0.0079314  -0.0103558   0.0059796  -0.0132465   0.0089400
    3   0.0053397   0.0023341  -0.0034547   0.0011040  -0.0029453   0.0051890
            7           8           9          10          11          12
    1  -0.0062981  -0.0017958   0.0048500  -0.0014051  -0.0044774  -0.0094726
    2   0.0029484   0.0050918  -0.0093789   0.0050260   0.0052232   0.0068238
    3   0.0018486   0.0027683  -0.0050888   0.0025820   0.0035716  -0.0003340
           13          14          15          16          17          18
    1   0.0026043  -0.0077146   0.0011562   0.0142497  -0.0073544   0.0043539
    2  -0.0074612  -0.0116562   0.0091145   0.0048234   0.0033688   0.0016678
    3  -0.0055059  -0.0078692  -0.0069399  -0.0002995   0.0043968  -0.0011954
           19          20          21          22          23          24
    1   0.0055786   0.0009143  -0.0013036  -0.0005803  -0.0052346  -0.0014873
    2  -0.0048173   0.0030901  -0.0022798  -0.0058712   0.0000933  -0.0057631
    3   0.0062142   0.0018101  -0.0031787   0.0065651   0.0008099  -0.0020541
           25          26          27          28          29          30
    1  -0.0004172   0.0000881  -0.0029161   0.0038071   0.0041687  -0.0006036
    2   0.0039575  -0.0029947   0.0010514   0.0042524  -0.0066964  -0.0028733
    3  -0.0097004   0.0073106  -0.0042445   0.0053743  -0.0109468   0.0023633
           31          32          33          34          35          36
    1  -0.0023550   0.0024509  -0.0083156   0.0007595   0.0028758  -0.0020028
    2   0.0025862   0.0020102  -0.0085851  -0.0032965   0.0022040   0.0037991
    3  -0.0008474   0.0011416   0.0080297  -0.0035670   0.0022718  -0.0006126
           37          38          39          40
    1   0.0055606   0.0009427   0.0007821   0.0004788
    2  -0.0033622   0.0043405  -0.0042611   0.0000974
    3  -0.0025519   0.0022198   0.0033016  -0.0052101
 Max gradient component =       3.102E-02
 RMS gradient           =       7.750E-03
 Gradient time:  CPU 13.95 s  wall 6.99 s
 Geometry Optimization Parameters
   NAtoms,    NIC,     NZ,  NCons,   NDum,   NFix, NCnnct, MaxDiis
       40     289       0       0       0       0       0       0


** GEOMETRY OPTIMIZATION IN DELOCALIZED INTERNAL COORDINATES **
   Searching for a Minimum

   Optimization Cycle:   1

                       Coordinates (Angstroms)
     ATOM                X               Y               Z
      1  C         6.0987263362   -0.8168809993   -0.6174914829
      2  C         5.1507774082   -0.0020811397   -0.1456149739
      3  C         3.7150986101   -0.3723313978   -0.2516163560
      4  C         2.6626182375    0.3641762339    0.1866729195
      5  C         1.2923309005   -0.2030894995   -0.0229878196
      6  C         0.1548330079    0.4261337832    0.3391751586
      7  H         7.1444676657   -0.5378573313   -0.5356070890
      8  H         5.8479067159   -1.7635059459   -1.0870626044
      9  H         5.4795251504    0.9223585077    0.3079523065
     10  H         3.5064232401   -1.3279568918   -0.7287983060
     11  H         1.2293835788   -1.1547009044   -0.5362502371
     12  C        -1.2443345822   -0.0860388800    0.1041086170
     13  H         0.2425275829    1.4214074952    0.7514840952
     14  C        -1.6036351655   -1.4196751884    0.1712786496
     15  C        -3.0295478449   -1.8854067462   -0.0815852071
     16  C        -4.0724607081   -0.7802804693    0.0414957726
     17  H        -3.3254019422   -2.6707245739    0.6480287119
     18  H        -3.0536830959   -2.3443336206   -1.0939601800
     19  C        -3.6168851677    0.4024981019   -0.7828503507
     20  H        -4.2024397270   -0.4809117218    1.1014124692
     21  H        -5.0500347380   -1.1642302013   -0.3221608727
     22  C        -2.2987923313    1.0068934139   -0.2197534247
     23  H        -4.4096241793    1.1817646783   -0.8257872127
     24  H        -3.4634234927    0.0315065072   -1.8225052626
     25  C        -0.6833462152   -2.5571195043    0.5722069292
     26  H         0.2982371961   -2.2639414995    0.9727589536
     27  H        -0.5605059305   -3.2630233347   -0.2757008020
     28  H        -1.1438994462   -3.1064760128    1.4202879061
     29  C        -2.5882255058    1.8263206192    1.0617482412
     30  H        -2.9520790424    1.1808145779    1.8863758121
     31  H        -3.3562463664    2.6045365303    0.8627704028
     32  H        -1.6815680262    2.3480130856    1.4296407911
     33  C        -1.7738931149    1.9722478465   -1.3115213950
     34  H        -1.5326112738    1.4151869763   -2.2427008895
     35  H        -0.8587410660    2.5099311778   -0.9879186987
     36  H        -2.5368301458    2.7441360845   -1.5533766007
     37  C         2.8151115101    1.7104594960    0.8694476120
     38  H         3.8535810219    2.0575858693    0.9937298973
     39  H         2.3682707293    1.6593607290    1.8844979487
     40  H         2.2865133426    2.4861057989    0.2766121233
   Point Group: c1    Number of degrees of freedom:   114


   Energy is   -623.596548379


 Attempting to Generate Delocalized Internal Coordinates

114 Hessian modes will be used to form the next step
  Hessian Eigenvalues:
     0.002698    0.002779    0.004043    0.006903    0.006923    0.008069
     0.008450    0.009468    0.010040    0.010682    0.010973    0.013657
     0.014093    0.018867    0.019538    0.019680    0.020375    0.028056
     0.029095    0.030859    0.030859    0.031019    0.032039    0.045079
     0.046854    0.050017    0.052507    0.053492    0.053726    0.053909
     0.054568    0.054984    0.060440    0.065830    0.068072    0.068265
     0.074231    0.075056    0.077344    0.078060    0.081865    0.095355
     0.097759    0.120483    0.133135    0.159000    0.159607    0.159903
     0.160000    0.160000    0.160000    0.160000    0.160000    0.160000
     0.160000    0.160000    0.160000    0.160000    0.160000    0.160000
     0.160000    0.160000    0.160000    0.160000    0.185414    0.220000
     0.220000    0.220030    0.220135    0.227351    0.249460    0.249993
     0.249999    0.250000    0.264226    0.270776    0.277367    0.277894
     0.290592    0.296785    0.301419    0.306373    0.306520    0.315126
     0.321302    0.323425    0.323870    0.323970    0.324102    0.324324
     0.324473    0.324590    0.325503    0.325760    0.325811    0.325887
     0.326081    0.326370    0.327033    0.327227    0.327447    0.334640
     0.336871    0.338430    0.350060    0.352730    0.353475    0.356301
     0.358835    0.358906    0.469644    0.534976    0.551409    0.580870

 Minimum Search - Taking Simple RFO Step
 Searching for Lamda that Minimizes Along All modes
 Value Taken    Lamda =  -0.01998112
 Calculated Step too Large.  Step scaled by  0.779241
 Step Taken.  Stepsize is  0.300000

                             Maximum     Tolerance    Cnvgd?
         Gradient           0.035667      0.000300      NO
         Displacement       0.086869      0.001200      NO
         Energy change     *********      0.000001      NO


 New Cartesian Coordinates Obtained by Inverse Iteration

 Displacement from previous Coordinates is:  1.208619
 ----------------------------------------------------------------
             Standard Nuclear Orientation (Angstroms)
    I     Atom           X                Y                Z
 ----------------------------------------------------------------
    1      C       6.1409775999    -0.7406613424    -0.7407373981
    2      C       5.1572049734     0.0281199598    -0.2066818388
    3      C       3.7351833215    -0.3330786581    -0.3011810317
    4      C       2.6562568363     0.3605878391     0.1925774365
    5      C       1.3055417525    -0.2060673097    -0.0331144043
    6      C       0.1342381211     0.3756997414     0.3617774727
    7      H       7.1902472924    -0.4527226531    -0.6590300621
    8      H       5.9170213589    -1.6694703950    -1.2691925953
    9      H       5.4455094980     0.9452421898     0.3077647392
   10      H       3.5409012365    -1.2685767380    -0.8344837055
   11      H       1.2842395455    -1.1356806617    -0.6011584760
   12      C      -1.2540614286    -0.1240619263     0.1266776697
   13      H       0.1931366776     1.3630076501     0.8208089848
   14      C      -1.6369099527    -1.4471922823     0.2290097302
   15      C      -3.0690311237    -1.9082424020    -0.0529301771
   16      C      -4.1100636075    -0.7731334394     0.0040064033
   17      H      -3.3586110428    -2.6946011049     0.6735833970
   18      H      -3.0858467573    -2.3908037263    -1.0539925312
   19      C      -3.5978548361     0.4187178983    -0.8182952193
   20      H      -4.2698798821    -0.4696370425     1.0555997012
   21      H      -5.0844378538    -1.1376619289    -0.3769353856
   22      C      -2.2732725367     1.0067262672    -0.2341095276
   23      H      -4.3553316794     1.2241760951    -0.8888133977
   24      H      -3.4120393307     0.0653466736    -1.8540934412
   25      C      -0.7472230493    -2.5932480027     0.6921407465
   26      H       0.2238320767    -2.2811175135     1.0978407319
   27      H      -0.5827224802    -3.3230638399    -0.1243816980
   28      H      -1.2521989395    -3.1385262067     1.5165713499
   29      C      -2.5812671463     1.8549304605     1.0414861405
   30      H      -2.9898428240     1.2363011143     1.8599825624
   31      H      -3.3159417832     2.6506495159     0.8121314123
   32      H      -1.6730609022     2.3502140472     1.4296304772
   33      C      -1.6795054905     1.9524323783    -1.3279832597
   34      H      -1.4277245597     1.3856405289    -2.2435108666
   35      H      -0.7622643021     2.4667816812    -0.9894166206
   36      H      -2.4139319440     2.7349254777    -1.5994297537
   37      C       2.7671442692     1.6728053365     0.9537360563
   38      H       3.8033209056     2.0170658833     1.0793308959
   39      H       2.3287996572     1.5729789840     1.9650768594
   40      H       2.2175914562     2.4760691009     0.4261741750
 ----------------------------------------------------------------
 Molecular Point Group                 C1    NOp =  1
 Largest Abelian Subgroup              C1    NOp =  1
 Nuclear Repulsion Energy =  1063.4689621297 hartrees
 There are       60 alpha and       60 beta electrons
 Applying Cartesian multipole field
    Component          Value
    ---------          -----
     (2,0,0)        1.00000E-12
     (0,2,0)        2.00000E-11
     (0,0,2)       -3.00000E-11
 Nucleus-field energy     =     0.0000000143 hartrees
 Requested basis set is 6-31G
 There are 96 shells and 192 basis functions
 A cutoff of  1.0D-11 yielded   3255 shell pairs
 There are     14385 function pairs
 Smallest overlap matrix eigenvalue = 2.02E-03
 Guess MOs from SCF MO coefficient file

 -----------------------------------------------------------------------
  General SCF calculation program by
  Eric Jon Sundstrom, Paul Horn, Yuezhi Mao, Dmitri Zuev, Alec White,
  David Stuck, Shaama M.S., Shane Yost, Joonho Lee, David Small,
  Daniel Levine, Susi Lehtola, Hugh Burton, Evgeny Epifanovsky
 -----------------------------------------------------------------------
 Exchange:  B88      Correlation:  LYP
 Using SG-1 standard quadrature grid
 using 2 threads for integral computing
 -------------------------------------------------------
 OpenMP Integral computing Module                
 Release: version 1.0, May 2013, Q-Chem Inc. Pittsburgh 
 -------------------------------------------------------
 -------------------------------------------------------
 OpenMP BLAS3 based DFT computing Module                
 Release: version 1.0, May 2013, Q-Chem Inc. Pittsburgh 
 -------------------------------------------------------
 A restricted SCF calculation will be
 performed using DIIS
 SCF converges when DIIS error is below 1.0e-08
 ---------------------------------------
  Cycle       Energy         DIIS error
 ---------------------------------------
    1    -623.5953096230      9.82e-04  
    2    -623.6060095866      1.86e-04  
    3    -623.6055721138      3.40e-04  
    4    -623.6061363763      9.85e-05  
    5    -623.6061920711      1.65e-05  
    6    -623.6061925653      1.30e-05  
    7    -623.6061936172      2.55e-06  
    8    -623.6061936531      5.26e-07  
    9    -623.6061936540      3.69e-07  
   10    -623.6061936547      5.74e-08  
   11    -623.6061936547      3.98e-08  
   12    -623.6061936547      1.02e-08  
   13    -623.6061936547      2.54e-09  Convergence criterion met
 ---------------------------------------
 SCF time:   CPU 80.26s  wall 40.00s 
 SCF   energy in the final basis set =     -623.6061936547
 Total energy in the final basis set =     -623.6061936547
 
 --------------------------------------------------------------
 
                    Orbital Energies (a.u.)
 --------------------------------------------------------------
 
 Alpha MOs
 -- Occupied --
 -9.931  -9.930  -9.922  -9.921  -9.917  -9.915  -9.914  -9.914
 -9.914  -9.913  -9.909  -9.909  -9.907  -9.906  -9.904  -9.900
 -0.754  -0.733  -0.696  -0.694  -0.673  -0.641  -0.611  -0.602
 -0.598  -0.591  -0.543  -0.515  -0.496  -0.479  -0.461  -0.436
 -0.417  -0.401  -0.397  -0.384  -0.378  -0.366  -0.364  -0.362
 -0.351  -0.343  -0.341  -0.337  -0.334  -0.330  -0.317  -0.314
 -0.306  -0.298  -0.294  -0.286  -0.285  -0.272  -0.268  -0.256
 -0.245  -0.236  -0.195  -0.156
 -- Virtual --
 -0.060  -0.002   0.039   0.058   0.068   0.072   0.085   0.089
  0.100   0.102   0.105   0.113   0.119   0.123   0.133   0.139
  0.144   0.151   0.156   0.162   0.165   0.166   0.171   0.181
  0.185   0.186   0.194   0.196   0.200   0.206   0.214   0.221
  0.227   0.245   0.250   0.254   0.260   0.298   0.319   0.362
  0.366   0.380   0.408   0.436   0.480   0.485   0.490   0.494
  0.500   0.512   0.520   0.525   0.533   0.541   0.550   0.556
  0.568   0.570   0.576   0.583   0.610   0.614   0.617   0.629
  0.635   0.636   0.648   0.655   0.662   0.672   0.685   0.699
  0.708   0.713   0.726   0.727   0.742   0.769   0.774   0.780
  0.794   0.803   0.804   0.812   0.830   0.840   0.852   0.857
  0.865   0.879   0.885   0.887   0.900   0.910   0.911   0.917
  0.924   0.933   0.936   0.945   0.948   0.951   0.958   0.967
  0.969   0.984   0.992   1.023   1.048   1.055   1.079   1.115
  1.127   1.136   1.157   1.188   1.190   1.199   1.230   1.255
  1.282   1.300   1.338   1.397   1.429   1.443   1.523   1.550
  1.574   1.651   1.727   1.809
 --------------------------------------------------------------
 
          Ground-State Mulliken Net Atomic Charges

     Atom                 Charge (a.u.)
  ----------------------------------------
      1 C                    -0.283182
      2 C                    -0.025342
      3 C                    -0.167896
      4 C                     0.155062
      5 C                    -0.114480
      6 C                    -0.156789
      7 H                     0.103663
      8 H                     0.106696
      9 H                     0.094777
     10 H                     0.086799
     11 H                     0.096664
     12 C                     0.093334
     13 H                     0.096866
     14 C                     0.089613
     15 C                    -0.274498
     16 C                    -0.216260
     17 H                     0.109440
     18 H                     0.120957
     19 C                    -0.205547
     20 H                     0.114354
     21 H                     0.099374
     22 C                     0.007664
     23 H                     0.096606
     24 H                     0.105149
     25 C                    -0.437797
     26 H                     0.138444
     27 H                     0.126654
     28 H                     0.121090
     29 C                    -0.368546
     30 H                     0.121849
     31 H                     0.113248
     32 H                     0.117005
     33 C                    -0.358679
     34 H                     0.118249
     35 H                     0.111379
     36 H                     0.108803
     37 C                    -0.451447
     38 H                     0.128377
     39 H                     0.139713
     40 H                     0.138634
  ----------------------------------------
  Sum of atomic charges =    -0.000000

 -----------------------------------------------------------------
                    Cartesian Multipole Moments
 -----------------------------------------------------------------
    Charge (ESU x 10^10)
                -0.0000
    Dipole Moment (Debye)
         X      -0.7024      Y       0.1558      Z       0.2072
       Tot       0.7487
    Quadrupole Moments (Debye-Ang)
        XX     -98.9548     XY       2.1075     YY     -97.2572
        XZ       0.8729     YZ       2.7768     ZZ    -102.5409
    Octopole Moments (Debye-Ang^2)
       XXX       3.5609    XXY       6.3145    XYY       1.0951
       YYY      -1.9943    XXZ       0.8904    XYZ      10.2171
       YYZ      -0.4161    XZZ      -6.9011    YZZ      -2.0249
       ZZZ       2.5357
    Hexadecapole Moments (Debye-Ang^3)
      XXXX   -5978.7637   XXXY      26.0865   XXYY   -1217.9810
      XYYY     -14.3706   YYYY   -1312.7796   XXXZ      25.4837
      XXYZ      47.0939   XYYZ       1.9182   YYYZ      11.7152
      XXZZ   -1133.1635   XYZZ      -5.4927   YYZZ    -292.6741
      XZZZ      33.9003   YZZZ      11.0132   ZZZZ    -450.2819
 -----------------------------------------------------------------
 Calculating analytic gradient of the SCF energy
 Gradient of SCF Energy
            1           2           3           4           5           6
    1  -0.0030372   0.0106516  -0.0136203   0.0101304  -0.0096096   0.0097492
    2  -0.0011348   0.0064570  -0.0059088   0.0042873  -0.0072095   0.0062501
    3  -0.0004195   0.0028913  -0.0021643   0.0014844  -0.0025910   0.0031111
            7           8           9          10          11          12
    1  -0.0013097  -0.0005154   0.0015346   0.0011388   0.0003746  -0.0057031
    2   0.0010961   0.0015015  -0.0031079   0.0018041   0.0035479   0.0041989
    3   0.0007569   0.0009517  -0.0019902   0.0009056   0.0008471   0.0009577
           13          14          15          16          17          18
    1   0.0002432  -0.0017986   0.0012234   0.0039443  -0.0024822   0.0017685
    2  -0.0019241  -0.0056471   0.0009699   0.0013054   0.0006957   0.0006480
    3  -0.0030577  -0.0042464  -0.0023545   0.0006269   0.0017467  -0.0001679
           19          20          21          22          23          24
    1   0.0006462   0.0007388  -0.0009391   0.0000560  -0.0011362  -0.0002121
    2  -0.0000733   0.0005549  -0.0012857  -0.0025442   0.0007139  -0.0016890
    3   0.0018672   0.0002403  -0.0004193   0.0032431  -0.0006779  -0.0006828
           25          26          27          28          29          30
    1  -0.0003950  -0.0015716  -0.0014640   0.0013992   0.0012071   0.0000671
    2  -0.0000150  -0.0022122   0.0004296   0.0014007  -0.0026659  -0.0001947
    3  -0.0049372   0.0037153  -0.0010050   0.0030888  -0.0041308   0.0013048
           31          32          33          34          35          36
    1  -0.0007282   0.0005608  -0.0026315   0.0003187   0.0012275   0.0000424
    2   0.0010106   0.0006594  -0.0029308  -0.0005593   0.0010925   0.0012905
    3   0.0002255   0.0004997   0.0021065  -0.0011983   0.0002825  -0.0001554
           37          38          39          40
    1  -0.0001442  -0.0005070   0.0005492   0.0002335
    2  -0.0011708   0.0011464  -0.0012019   0.0004147
    3  -0.0010969   0.0007745   0.0012928  -0.0016253
 Max gradient component =       1.362E-02
 RMS gradient           =       3.129E-03
 Gradient time:  CPU 13.89 s  wall 6.95 s
 Geometry Optimization Parameters
   NAtoms,    NIC,     NZ,  NCons,   NDum,   NFix, NCnnct, MaxDiis
       40     289       0       0       0       0       0       0

 Cartesian Hessian Update
 Hessian Updated using BFGS Update


** GEOMETRY OPTIMIZATION IN DELOCALIZED INTERNAL COORDINATES **
   Searching for a Minimum

   Optimization Cycle:   2

                       Coordinates (Angstroms)
     ATOM                X               Y               Z
      1  C         6.1409775999   -0.7406613424   -0.7407373981
      2  C         5.1572049734    0.0281199598   -0.2066818388
      3  C         3.7351833215   -0.3330786581   -0.3011810317
      4  C         2.6562568363    0.3605878391    0.1925774365
      5  C         1.3055417525   -0.2060673097   -0.0331144043
      6  C         0.1342381211    0.3756997414    0.3617774727
      7  H         7.1902472924   -0.4527226531   -0.6590300621
      8  H         5.9170213589   -1.6694703950   -1.2691925953
      9  H         5.4455094980    0.9452421898    0.3077647392
     10  H         3.5409012365   -1.2685767380   -0.8344837055
     11  H         1.2842395455   -1.1356806617   -0.6011584760
     12  C        -1.2540614286   -0.1240619263    0.1266776697
     13  H         0.1931366776    1.3630076501    0.8208089848
     14  C        -1.6369099527   -1.4471922823    0.2290097302
     15  C        -3.0690311237   -1.9082424020   -0.0529301771
     16  C        -4.1100636075   -0.7731334394    0.0040064033
     17  H        -3.3586110428   -2.6946011049    0.6735833970
     18  H        -3.0858467573   -2.3908037263   -1.0539925312
     19  C        -3.5978548361    0.4187178983   -0.8182952193
     20  H        -4.2698798821   -0.4696370425    1.0555997012
     21  H        -5.0844378538   -1.1376619289   -0.3769353856
     22  C        -2.2732725367    1.0067262672   -0.2341095276
     23  H        -4.3553316794    1.2241760951   -0.8888133977
     24  H        -3.4120393307    0.0653466736   -1.8540934412
     25  C        -0.7472230493   -2.5932480027    0.6921407465
     26  H         0.2238320767   -2.2811175135    1.0978407319
     27  H        -0.5827224802   -3.3230638399   -0.1243816980
     28  H        -1.2521989395   -3.1385262067    1.5165713499
     29  C        -2.5812671463    1.8549304605    1.0414861405
     30  H        -2.9898428240    1.2363011143    1.8599825624
     31  H        -3.3159417832    2.6506495159    0.8121314123
     32  H        -1.6730609022    2.3502140472    1.4296304772
     33  C        -1.6795054905    1.9524323783   -1.3279832597
     34  H        -1.4277245597    1.3856405289   -2.2435108666
     35  H        -0.7622643021    2.4667816812   -0.9894166206
     36  H        -2.4139319440    2.7349254777   -1.5994297537
     37  C         2.7671442692    1.6728053365    0.9537360563
     38  H         3.8033209056    2.0170658833    1.0793308959
     39  H         2.3287996572    1.5729789840    1.9650768594
     40  H         2.2175914562    2.4760691009    0.4261741750
   Point Group: c1    Number of degrees of freedom:   114


   Energy is   -623.606193655

 Hessian Updated using BFGS Update

100 Hessian modes will be used to form the next step
  Hessian Eigenvalues:
     0.002697    0.002779    0.004043    0.006903    0.006949    0.008443
     0.008779    0.009473    0.010037    0.010811    0.010973    0.013658
     0.014413    0.018890    0.019547    0.019681    0.020375    0.028056
     0.029172    0.030859    0.030859    0.031072    0.032279    0.045748
     0.046925    0.049966    0.052588    0.053482    0.053721    0.053875
     0.054563    0.054974    0.060274    0.064182    0.067675    0.068266
     0.074172    0.074859    0.077055    0.078226    0.082527    0.095347
     0.097587    0.119706    0.133118    0.149208    0.159056    0.159626
     0.159942    0.164081    0.185461    0.210905    0.220009    0.220033
     0.223935    0.227311    0.247451    0.249785    0.249999    0.259792
     0.264804    0.270714    0.277570    0.282370    0.291096    0.297334
     0.300777    0.306170    0.306625    0.315477    0.320954    0.321795
     0.323524    0.323957    0.324085    0.324143    0.324499    0.324535
     0.325013    0.325619    0.325775    0.325828    0.326197    0.326446
     0.327142    0.327358    0.328136    0.334585    0.335826    0.338366
     0.349809    0.352697    0.354092    0.355465    0.358757    0.358972
     0.470248    0.536865    0.556218    0.597097

 Minimum Search - Taking Simple RFO Step
 Searching for Lamda that Minimizes Along All modes
 Value Taken    Lamda =  -0.00418210
 Step Taken.  Stepsize is  0.255515

                             Maximum     Tolerance    Cnvgd?
         Gradient           0.007779      0.000300      NO
         Displacement       0.067715      0.001200      NO
         Energy change     -0.009645      0.000001      NO


 New Cartesian Coordinates Obtained by Inverse Iteration

 Displacement from previous Coordinates is:  1.133321
 ----------------------------------------------------------------
             Standard Nuclear Orientation (Angstroms)
    I     Atom           X                Y                Z
 ----------------------------------------------------------------
    1      C       6.1240440078    -0.8474430334    -0.7021220857
    2      C       5.1304830673    -0.0649888869    -0.1856992275
    3      C       3.7173297646    -0.3825471506    -0.2810603813
    4      C       2.6427956004     0.3440073204     0.1969041976
    5      C       1.2915753362    -0.1796400633    -0.0297134280
    6      C       0.1130943223     0.4194324371     0.3397636678
    7      H       7.1798960629    -0.5772122442    -0.6140371509
    8      H       5.9032037341    -1.7814252983    -1.2305566695
    9      H       5.4073126796     0.8622998445     0.3315617671
   10      H       3.4962231312    -1.3221384484    -0.8066952905
   11      H       1.2582751405    -1.1336682149    -0.5702067819
   12      C      -1.2582330238    -0.0802273371     0.1113959723
   13      H       0.1667554403     1.4032655067     0.8222780159
   14      C      -1.5991074389    -1.4037126487     0.2330043123
   15      C      -3.0213380878    -1.9216056708    -0.0340592771
   16      C      -4.1043762663    -0.8142416438     0.0106455413
   17      H      -3.2539471679    -2.7262610834     0.6882850995
   18      H      -3.0413192071    -2.4101667779    -1.0324489493
   19      C      -3.6214893927     0.4044786680    -0.8115124859
   20      H      -4.2818843184    -0.5194328574     1.0610148010
   21      H      -5.0658913234    -1.1984122625    -0.3740626716
   22      C      -2.3082230237     1.0376299713    -0.2388847318
   23      H      -4.3982523271     1.1880059113    -0.8661903513
   24      H      -3.4284420067     0.0792448917    -1.8521234584
   25      C      -0.6234715276    -2.5004715389     0.6462090008
   26      H       0.3454186078    -2.1040265948     0.9801655044
   27      H      -0.4312550726    -3.2060486925    -0.1843924603
   28      H      -1.0571458565    -3.1044618306     1.4674906660
   29      C      -2.6447721733     1.8689325263     1.0499579581
   30      H      -3.0529789156     1.2306422161     1.8498058345
   31      H      -3.3910720785     2.6490703454     0.8184459993
   32      H      -1.7509861998     2.3739585254     1.4521719930
   33      C      -1.7442607258     2.0100300957    -1.3332163556
   34      H      -1.4666581036     1.4538711205    -2.2436842667
   35      H      -0.8529622865     2.5580087196    -0.9907651733
   36      H      -2.5127920037     2.7542444285    -1.6080113278
   37      C       2.7896301244     1.6642524907     0.9431477849
   38      H       3.8412955813     1.9594283735     1.0630434959
   39      H       2.3390876540     1.6053780615     1.9494632430
   40      H       2.2725613986     2.4828224741     0.4111232216
 ----------------------------------------------------------------
 Molecular Point Group                 C1    NOp =  1
 Largest Abelian Subgroup              C1    NOp =  1
 Nuclear Repulsion Energy =  1063.7989275357 hartrees
 There are       60 alpha and       60 beta electrons
 Applying Cartesian multipole field
    Component          Value
    ---------          -----
     (2,0,0)        1.00000E-12
     (0,2,0)        2.00000E-11
     (0,0,2)       -3.00000E-11
 Nucleus-field energy     =     0.0000000145 hartrees
 Requested basis set is 6-31G
 There are 96 shells and 192 basis functions
 A cutoff of  1.0D-11 yielded   3262 shell pairs
 There are     14422 function pairs
 Smallest overlap matrix eigenvalue = 1.95E-03
 Guess MOs from SCF MO coefficient file

 -----------------------------------------------------------------------
  General SCF calculation program by
  Eric Jon Sundstrom, Paul Horn, Yuezhi Mao, Dmitri Zuev, Alec White,
  David Stuck, Shaama M.S., Shane Yost, Joonho Lee, David Small,
  Daniel Levine, Susi Lehtola, Hugh Burton, Evgeny Epifanovsky
 -----------------------------------------------------------------------
 Exchange:  B88      Correlation:  LYP
 Using SG-1 standard quadrature grid
 using 2 threads for integral computing
 -------------------------------------------------------
 OpenMP Integral computing Module                
 Release: version 1.0, May 2013, Q-Chem Inc. Pittsburgh 
 -------------------------------------------------------
 -------------------------------------------------------
 OpenMP BLAS3 based DFT computing Module                
 Release: version 1.0, May 2013, Q-Chem Inc. Pittsburgh 
 -------------------------------------------------------
 A restricted SCF calculation will be
 performed using DIIS
 SCF converges when DIIS error is below 1.0e-08
 ---------------------------------------
  Cycle       Energy         DIIS error
 ---------------------------------------
    1    -623.6003932003      7.79e-04  
    2    -623.6066809056      1.21e-04  
    3    -623.6064154425      2.51e-04  
    4    -623.6067323940      6.60e-05  
    5    -623.6067571047      1.52e-05  
    6    -623.6067576793      1.09e-05  
    7    -623.6067584251      1.66e-06  
    8    -623.6067584403      8.26e-07  
    9    -623.6067584438      1.55e-07  
   10    -623.6067584439      7.43e-08  
   11    -623.6067584439      3.28e-08  
   12    -623.6067584439      5.87e-09  Convergence criterion met
 ---------------------------------------
 SCF time:   CPU 74.00s  wall 37.00s 
 SCF   energy in the final basis set =     -623.6067584439
 Total energy in the final basis set =     -623.6067584439
 
 --------------------------------------------------------------
 
                    Orbital Energies (a.u.)
 --------------------------------------------------------------
 
 Alpha MOs
 -- Occupied --
 -9.933  -9.930  -9.922  -9.921  -9.916  -9.916  -9.915  -9.914
 -9.914  -9.913  -9.911  -9.910  -9.908  -9.904  -9.903  -9.901
 -0.753  -0.733  -0.696  -0.693  -0.673  -0.639  -0.611  -0.603
 -0.598  -0.592  -0.546  -0.517  -0.497  -0.478  -0.461  -0.437
 -0.417  -0.401  -0.397  -0.383  -0.377  -0.366  -0.363  -0.360
 -0.352  -0.344  -0.343  -0.339  -0.334  -0.330  -0.316  -0.314
 -0.306  -0.297  -0.294  -0.289  -0.283  -0.272  -0.268  -0.257
 -0.246  -0.236  -0.196  -0.155
 -- Virtual --
 -0.063  -0.002   0.040   0.059   0.069   0.073   0.084   0.089
  0.100   0.103   0.106   0.113   0.119   0.124   0.135   0.141
  0.143   0.151   0.157   0.164   0.165   0.167   0.170   0.180
  0.185   0.186   0.192   0.196   0.199   0.207   0.214   0.219
  0.229   0.245   0.248   0.251   0.258   0.296   0.324   0.363
  0.367   0.383   0.411   0.438   0.480   0.486   0.490   0.494
  0.499   0.509   0.519   0.529   0.530   0.540   0.548   0.552
  0.566   0.573   0.576   0.586   0.605   0.609   0.616   0.628
  0.634   0.637   0.650   0.655   0.659   0.673   0.686   0.698
  0.709   0.711   0.723   0.731   0.741   0.771   0.775   0.783
  0.795   0.801   0.805   0.811   0.830   0.840   0.856   0.857
  0.868   0.879   0.884   0.887   0.903   0.910   0.910   0.917
  0.924   0.932   0.936   0.942   0.948   0.952   0.965   0.970
  0.973   0.989   1.000   1.025   1.047   1.063   1.082   1.119
  1.127   1.143   1.153   1.180   1.183   1.197   1.222   1.264
  1.280   1.300   1.333   1.400   1.428   1.447   1.524   1.549
  1.572   1.644   1.720   1.802
 --------------------------------------------------------------
 
          Ground-State Mulliken Net Atomic Charges

     Atom                 Charge (a.u.)
  ----------------------------------------
      1 C                    -0.285741
      2 C                    -0.027432
      3 C                    -0.164334
      4 C                     0.156426
      5 C                    -0.126491
      6 C                    -0.156396
      7 H                     0.105470
      8 H                     0.106615
      9 H                     0.094108
     10 H                     0.086155
     11 H                     0.101423
     12 C                     0.090429
     13 H                     0.096742
     14 C                     0.094694
     15 C                    -0.273443
     16 C                    -0.217174
     17 H                     0.109254
     18 H                     0.121131
     19 C                    -0.208248
     20 H                     0.114657
     21 H                     0.100610
     22 C                     0.014958
     23 H                     0.097291
     24 H                     0.105829
     25 C                    -0.442737
     26 H                     0.142472
     27 H                     0.126877
     28 H                     0.118452
     29 C                    -0.369680
     30 H                     0.122420
     31 H                     0.113634
     32 H                     0.116524
     33 C                    -0.361826
     34 H                     0.119449
     35 H                     0.113001
     36 H                     0.109959
     37 C                    -0.451304
     38 H                     0.128079
     39 H                     0.139369
     40 H                     0.138776
  ----------------------------------------
  Sum of atomic charges =    -0.000000

 -----------------------------------------------------------------
                    Cartesian Multipole Moments
 -----------------------------------------------------------------
    Charge (ESU x 10^10)
                -0.0000
    Dipole Moment (Debye)
         X      -0.7883      Y       0.1655      Z       0.1793
       Tot       0.8252
    Quadrupole Moments (Debye-Ang)
        XX     -99.0452     XY       1.9051     YY     -97.2715
        XZ       0.9225     YZ       2.7646     ZZ    -102.7184
    Octopole Moments (Debye-Ang^2)
       XXX       1.7599    XXY       5.4021    XYY       0.8045
       YYY      -2.0525    XXZ       0.5388    XYZ      10.1062
       YYZ      -0.9194    XZZ      -7.1077    YZZ      -1.3487
       ZZZ       1.7759
    Hexadecapole Moments (Debye-Ang^3)
      XXXX   -5967.0354   XXXY      59.6667   XXYY   -1218.0738
      XYYY      29.2919   YYYY   -1312.5120   XXXZ      15.3031
      XXYZ      45.1511   XYYZ      -2.8150   YYYZ       8.3586
      XXZZ   -1132.3821   XYZZ       9.9303   YYZZ    -291.8754
      XZZZ      23.3753   YZZZ       7.3004   ZZZZ    -442.5268
 -----------------------------------------------------------------
 Calculating analytic gradient of the SCF energy
 Gradient of SCF Energy
            1           2           3           4           5           6
    1   0.0017665  -0.0028238  -0.0002673   0.0021121  -0.0020426  -0.0018811
    2  -0.0020130   0.0004316   0.0009837   0.0000494  -0.0012635  -0.0016199
    3  -0.0012481   0.0004712   0.0006903  -0.0000222   0.0012407  -0.0001557
            7           8           9          10          11          12
    1   0.0008845   0.0001359  -0.0010153   0.0011932  -0.0000229  -0.0009391
    2  -0.0000677  -0.0004992   0.0009866  -0.0004780  -0.0029083  -0.0039253
    3  -0.0001294  -0.0003267   0.0005456  -0.0003067   0.0009985   0.0019283
           13          14          15          16          17          18
    1  -0.0009833   0.0036264  -0.0010692  -0.0023120   0.0006567  -0.0004600
    2   0.0002657   0.0048709  -0.0019080   0.0000196  -0.0001176   0.0001913
    3   0.0006717   0.0012767  -0.0001434  -0.0003855  -0.0006969   0.0002223
           19          20          21          22          23          24
    1  -0.0010951   0.0004792  -0.0000778   0.0000509   0.0009425   0.0004937
    2   0.0013649  -0.0005227   0.0001036   0.0003359  -0.0003128   0.0006592
    3  -0.0008735  -0.0001058   0.0009290  -0.0008199  -0.0004275   0.0003911
           25          26          27          28          29          30
    1   0.0014473   0.0028074  -0.0003809   0.0004905  -0.0007114   0.0001772
    2   0.0009052   0.0025145   0.0002368  -0.0000991   0.0004333   0.0004141
    3  -0.0029811  -0.0016973   0.0011329   0.0007076   0.0004601  -0.0000212
           31          32          33          34          35          36
    1   0.0001534  -0.0006400   0.0006103  -0.0002274  -0.0004375   0.0004312
    2  -0.0004161  -0.0000006   0.0010992   0.0005963  -0.0000419  -0.0000015
    3   0.0004325  -0.0000898  -0.0010226   0.0004423  -0.0008349  -0.0000789
           37          38          39          40
    1  -0.0016739   0.0002215   0.0001259   0.0002542
    2  -0.0000733  -0.0004915   0.0004675  -0.0001692
    3   0.0001120  -0.0004097  -0.0004976   0.0006210
 Max gradient component =       4.871E-03
 RMS gradient           =       1.199E-03
 Gradient time:  CPU 13.90 s  wall 6.96 s
 Geometry Optimization Parameters
   NAtoms,    NIC,     NZ,  NCons,   NDum,   NFix, NCnnct, MaxDiis
       40     289       0       0       0       0       0       0

 Cartesian Hessian Update
 Hessian Updated using BFGS Update


** GEOMETRY OPTIMIZATION IN DELOCALIZED INTERNAL COORDINATES **
   Searching for a Minimum

   Optimization Cycle:   3

                       Coordinates (Angstroms)
     ATOM                X               Y               Z
      1  C         6.1240440078   -0.8474430334   -0.7021220857
      2  C         5.1304830673   -0.0649888869   -0.1856992275
      3  C         3.7173297646   -0.3825471506   -0.2810603813
      4  C         2.6427956004    0.3440073204    0.1969041976
      5  C         1.2915753362   -0.1796400633   -0.0297134280
      6  C         0.1130943223    0.4194324371    0.3397636678
      7  H         7.1798960629   -0.5772122442   -0.6140371509
      8  H         5.9032037341   -1.7814252983   -1.2305566695
      9  H         5.4073126796    0.8622998445    0.3315617671
     10  H         3.4962231312   -1.3221384484   -0.8066952905
     11  H         1.2582751405   -1.1336682149   -0.5702067819
     12  C        -1.2582330238   -0.0802273371    0.1113959723
     13  H         0.1667554403    1.4032655067    0.8222780159
     14  C        -1.5991074389   -1.4037126487    0.2330043123
     15  C        -3.0213380878   -1.9216056708   -0.0340592771
     16  C        -4.1043762663   -0.8142416438    0.0106455413
     17  H        -3.2539471679   -2.7262610834    0.6882850995
     18  H        -3.0413192071   -2.4101667779   -1.0324489493
     19  C        -3.6214893927    0.4044786680   -0.8115124859
     20  H        -4.2818843184   -0.5194328574    1.0610148010
     21  H        -5.0658913234   -1.1984122625   -0.3740626716
     22  C        -2.3082230237    1.0376299713   -0.2388847318
     23  H        -4.3982523271    1.1880059113   -0.8661903513
     24  H        -3.4284420067    0.0792448917   -1.8521234584
     25  C        -0.6234715276   -2.5004715389    0.6462090008
     26  H         0.3454186078   -2.1040265948    0.9801655044
     27  H        -0.4312550726   -3.2060486925   -0.1843924603
     28  H        -1.0571458565   -3.1044618306    1.4674906660
     29  C        -2.6447721733    1.8689325263    1.0499579581
     30  H        -3.0529789156    1.2306422161    1.8498058345
     31  H        -3.3910720785    2.6490703454    0.8184459993
     32  H        -1.7509861998    2.3739585254    1.4521719930
     33  C        -1.7442607258    2.0100300957   -1.3332163556
     34  H        -1.4666581036    1.4538711205   -2.2436842667
     35  H        -0.8529622865    2.5580087196   -0.9907651733
     36  H        -2.5127920037    2.7542444285   -1.6080113278
     37  C         2.7896301244    1.6642524907    0.9431477849
     38  H         3.8412955813    1.9594283735    1.0630434959
     39  H         2.3390876540    1.6053780615    1.9494632430
     40  H         2.2725613986    2.4828224741    0.4111232216
   Point Group: c1    Number of degrees of freedom:   114


   Energy is   -623.606758444

 Hessian Updated using BFGS Update

101 Hessian modes will be used to form the next step
  Hessian Eigenvalues:
     0.002691    0.002769    0.004026    0.006829    0.006911    0.008281
     0.008756    0.009471    0.010121    0.010665    0.010973    0.013657
     0.015215    0.019378    0.019680    0.020374    0.021220    0.028057
     0.029759    0.030859    0.030859    0.031199    0.032681    0.045744
     0.046922    0.050143    0.052638    0.053473    0.053709    0.054066
     0.054570    0.054989    0.060344    0.065063    0.068265    0.068743
     0.073643    0.074472    0.077058    0.078382    0.082786    0.095289
     0.097779    0.119730    0.133295    0.144601    0.159176    0.159657
     0.159949    0.160901    0.167835    0.186037    0.206775    0.220020
     0.220850    0.223978    0.227546    0.247421    0.249791    0.252170
     0.263586    0.269890    0.276799    0.279429    0.285939    0.294029
     0.297296    0.305832    0.306508    0.311147    0.318085    0.321527
     0.323474    0.323865    0.324073    0.324128    0.324469    0.324523
     0.324956    0.325574    0.325775    0.325826    0.326185    0.326432
     0.327131    0.327356    0.328041    0.333899    0.334974    0.335338
     0.349693    0.352656    0.354070    0.354654    0.358138    0.358854
     0.396642    0.530619    0.548135    0.573576    0.595895

 Minimum Search - Taking Simple RFO Step
 Searching for Lamda that Minimizes Along All modes
 Value Taken    Lamda =  -0.00359459
 Calculated Step too Large.  Step scaled by  0.892595
 Step Taken.  Stepsize is  0.300000

                             Maximum     Tolerance    Cnvgd?
         Gradient           0.017530      0.000300      NO
         Displacement       0.119534      0.001200      NO
         Energy change     -0.000565      0.000001      NO


 New Cartesian Coordinates Obtained by Inverse Iteration

 Displacement from previous Coordinates is:  1.770962
 ----------------------------------------------------------------
             Standard Nuclear Orientation (Angstroms)
    I     Atom           X                Y                Z
 ----------------------------------------------------------------
    1      C       6.1210341266    -0.6926449247    -0.8729444108
    2      C       5.1235850874     0.0127090520    -0.2674714796
    3      C       3.7186753340    -0.3227746000    -0.3599966797
    4      C       2.6438064530     0.3372331890     0.2056306256
    5      C       1.2994897213    -0.1862662603    -0.0354691426
    6      C       0.1194871101     0.3640580947     0.3968266071
    7      H       7.1720056454    -0.4075483985    -0.7821111605
    8      H       5.9089625076    -1.5787106374    -1.4816623030
    9      H       5.3940589176     0.8945495647     0.3280504299
   10      H       3.4921542061    -1.2146658305    -0.9624587232
   11      H       1.2638538751    -1.0907338939    -0.6561265556
   12      C      -1.2535961685    -0.1200782916     0.1477810652
   13      H       0.1761694844     1.3166357398     0.9396772733
   14      C      -1.6432815831    -1.4282985226     0.3057392928
   15      C      -3.0684492221    -1.9119250632    -0.0045931236
   16      C      -4.1220863730    -0.7785482645    -0.0424112420
   17      H      -3.3530745170    -2.6847704766     0.7331534366
   18      H      -3.0624017883    -2.4357642261    -0.9855796362
   19      C      -3.5696933952     0.4009720600    -0.8725185060
   20      H      -4.3459050284    -0.4471502512     0.9885196643
   21      H      -5.0722047600    -1.1465416013    -0.4675612638
   22      C      -2.2649620603     1.0133097452    -0.2607456214
   23      H      -4.3247718135     1.2011878454    -0.9726714477
   24      H      -3.3464741370     0.0452088749    -1.8969415524
   25      C      -0.7356295142    -2.5413723306     0.8187997206
   26      H       0.2088536704    -2.1640903137     1.2315242349
   27      H      -0.4848863335    -3.2625962960     0.0163531432
   28      H      -1.2603036499    -3.1260098160     1.5983949385
   29      C      -2.6293110611     1.8754548741     0.9995003892
   30      H      -3.0982687794     1.2609304740     1.7844193426
   31      H      -3.3353112068     2.6769896681     0.7198847278
   32      H      -1.7364289521     2.3533340550     1.4359290412
   33      C      -1.6371232575     1.9504018284    -1.3477225081
   34      H      -1.3269253132     1.3672916451    -2.2306293326
   35      H      -0.7544460943     2.4904538307    -0.9727691672
   36      H      -2.3825655050     2.6976843192    -1.6735617049
   37      C       2.7972983560     1.5886793200     1.0624339533
   38      H       3.8488652097     1.8857898278     1.1826596199
   39      H       2.3711370282     1.4349998901     2.0692734788
   40      H       2.2567869065     2.4434877505     0.6178301278
 ----------------------------------------------------------------
 Molecular Point Group                 C1    NOp =  1
 Largest Abelian Subgroup              C1    NOp =  1
 Nuclear Repulsion Energy =  1063.3648400178 hartrees
 There are       60 alpha and       60 beta electrons
 Applying Cartesian multipole field
    Component          Value
    ---------          -----
     (2,0,0)        1.00000E-12
     (0,2,0)        2.00000E-11
     (0,0,2)       -3.00000E-11
 Nucleus-field energy     =     0.0000000130 hartrees
 Requested basis set is 6-31G
 There are 96 shells and 192 basis functions
 A cutoff of  1.0D-11 yielded   3257 shell pairs
 There are     14390 function pairs
 Smallest overlap matrix eigenvalue = 2.04E-03
 Guess MOs from SCF MO coefficient file

 -----------------------------------------------------------------------
  General SCF calculation program by
  Eric Jon Sundstrom, Paul Horn, Yuezhi Mao, Dmitri Zuev, Alec White,
  David Stuck, Shaama M.S., Shane Yost, Joonho Lee, David Small,
  Daniel Levine, Susi Lehtola, Hugh Burton, Evgeny Epifanovsky
 -----------------------------------------------------------------------
 Exchange:  B88      Correlation:  LYP
 Using SG-1 standard quadrature grid
 using 2 threads for integral computing
 -------------------------------------------------------
 OpenMP Integral computing Module                
 Release: version 1.0, May 2013, Q-Chem Inc. Pittsburgh 
 -------------------------------------------------------
 -------------------------------------------------------
 OpenMP BLAS3 based DFT computing Module                
 Release: version 1.0, May 2013, Q-Chem Inc. Pittsburgh 
 -------------------------------------------------------
 A restricted SCF calculation will be
 performed using DIIS
 SCF converges when DIIS error is below 1.0e-08
 ---------------------------------------
  Cycle       Energy         DIIS error
 ---------------------------------------
    1    -623.5857918679      1.35e-03  
    2    -623.6078592909      6.87e-05  
    3    -623.6078425009      9.85e-05  
    4    -623.6078820296      4.78e-05  
    5    -623.6078937233      1.58e-05  
    6    -623.6078949910      4.87e-06  
    7    -623.6078951190      1.85e-06  
    8    -623.6078951387      4.12e-07  
    9    -623.6078951394      2.17e-07  
   10    -623.6078951396      6.51e-08  
   11    -623.6078951396      1.58e-08  
   12    -623.6078951396      9.26e-09  Convergence criterion met
 ---------------------------------------
 SCF time:   CPU 73.91s  wall 37.00s 
 SCF   energy in the final basis set =     -623.6078951396
 Total energy in the final basis set =     -623.6078951396
 
 --------------------------------------------------------------
 
                    Orbital Energies (a.u.)
 --------------------------------------------------------------
 
 Alpha MOs
 -- Occupied --
 -9.932  -9.930  -9.922  -9.921  -9.916  -9.916  -9.915  -9.915
 -9.914  -9.913  -9.910  -9.910  -9.907  -9.904  -9.903  -9.900
 -0.753  -0.734  -0.696  -0.693  -0.673  -0.640  -0.611  -0.602
 -0.598  -0.592  -0.546  -0.517  -0.496  -0.478  -0.460  -0.436
 -0.417  -0.401  -0.397  -0.383  -0.379  -0.365  -0.362  -0.360
 -0.352  -0.344  -0.342  -0.339  -0.334  -0.330  -0.316  -0.314
 -0.305  -0.297  -0.293  -0.289  -0.285  -0.273  -0.267  -0.257
 -0.246  -0.234  -0.194  -0.156
 -- Virtual --
 -0.063  -0.001   0.037   0.059   0.069   0.073   0.084   0.089
  0.100   0.103   0.106   0.113   0.119   0.124   0.133   0.141
  0.144   0.151   0.157   0.162   0.166   0.166   0.170   0.180
  0.183   0.188   0.193   0.197   0.198   0.208   0.215   0.219
  0.229   0.246   0.246   0.251   0.259   0.297   0.323   0.364
  0.368   0.385   0.412   0.433   0.478   0.486   0.489   0.495
  0.499   0.509   0.517   0.525   0.531   0.540   0.546   0.554
  0.565   0.568   0.576   0.585   0.605   0.611   0.614   0.628
  0.634   0.636   0.648   0.655   0.659   0.673   0.683   0.698
  0.708   0.713   0.721   0.731   0.744   0.766   0.777   0.784
  0.795   0.800   0.801   0.810   0.826   0.839   0.855   0.856
  0.867   0.878   0.883   0.886   0.899   0.909   0.910   0.917
  0.923   0.933   0.937   0.943   0.949   0.952   0.957   0.969
  0.972   0.983   0.993   1.019   1.045   1.062   1.070   1.119
  1.121   1.130   1.149   1.170   1.184   1.200   1.229   1.251
  1.281   1.301   1.333   1.395   1.434   1.448   1.530   1.542
  1.571   1.645   1.724   1.797
 --------------------------------------------------------------
 
          Ground-State Mulliken Net Atomic Charges

     Atom                 Charge (a.u.)
  ----------------------------------------
      1 C                    -0.285420
      2 C                    -0.027868
      3 C                    -0.162755
      4 C                     0.157045
      5 C                    -0.115720
      6 C                    -0.161760
      7 H                     0.105551
      8 H                     0.106670
      9 H                     0.094267
     10 H                     0.086590
     11 H                     0.095003
     12 C                     0.081680
     13 H                     0.097067
     14 C                     0.097026
     15 C                    -0.273399
     16 C                    -0.217276
     17 H                     0.108596
     18 H                     0.121230
     19 C                    -0.207128
     20 H                     0.114359
     21 H                     0.100659
     22 C                     0.016002
     23 H                     0.097023
     24 H                     0.105623
     25 C                    -0.438199
     26 H                     0.139510
     27 H                     0.127060
     28 H                     0.119319
     29 C                    -0.369101
     30 H                     0.122170
     31 H                     0.113699
     32 H                     0.116490
     33 C                    -0.360752
     34 H                     0.119023
     35 H                     0.113415
     36 H                     0.109129
     37 C                    -0.451155
     38 H                     0.128386
     39 H                     0.139408
     40 H                     0.138535
  ----------------------------------------
  Sum of atomic charges =    -0.000000

 -----------------------------------------------------------------
                    Cartesian Multipole Moments
 -----------------------------------------------------------------
    Charge (ESU x 10^10)
                -0.0000
    Dipole Moment (Debye)
         X      -0.7432      Y       0.1566      Z       0.2129
       Tot       0.7888
    Quadrupole Moments (Debye-Ang)
        XX     -98.8686     XY       1.9884     YY     -97.8069
        XZ       0.9651     YZ       2.9202     ZZ    -102.1879
    Octopole Moments (Debye-Ang^2)
       XXX       2.4952    XXY       5.5832    XYY      -1.0183
       YYY      -2.1257    XXZ       0.3362    XYZ      11.0007
       YYZ      -0.1788    XZZ      -5.1200    YZZ      -2.2382
       ZZZ       2.4036
    Hexadecapole Moments (Debye-Ang^3)
      XXXX   -5949.3200   XXXY      22.1994   XXYY   -1218.6016
      XYYY     -11.9036   YYYY   -1280.8098   XXXZ      36.2504
      XXYZ      51.2863   XYYZ       7.4839   YYYZ      18.0711
      XXZZ   -1127.3261   XYZZ      -8.6414   YYZZ    -293.9600
      XZZZ      49.1484   YZZZ      19.4568   ZZZZ    -489.1404
 -----------------------------------------------------------------
 Calculating analytic gradient of the SCF energy
 Gradient of SCF Energy
            1           2           3           4           5           6
    1   0.0005855  -0.0038873   0.0032887  -0.0013542   0.0029413  -0.0037191
    2   0.0000206  -0.0017857   0.0023400  -0.0013129   0.0019918  -0.0022573
    3  -0.0000626  -0.0008250   0.0014288  -0.0005461   0.0010088  -0.0018718
            7           8           9          10          11          12
    1   0.0004859   0.0000053  -0.0009184   0.0000305   0.0008282   0.0020212
    2  -0.0002149  -0.0004430   0.0012002  -0.0006432  -0.0001788  -0.0008317
    3  -0.0002364  -0.0003703   0.0009267  -0.0004895  -0.0007830   0.0016219
           13          14          15          16          17          18
    1  -0.0005381   0.0020213  -0.0003344  -0.0019760   0.0008191  -0.0005479
    2  -0.0000913   0.0019091  -0.0008520  -0.0000014  -0.0000408  -0.0000934
    3   0.0001704   0.0005091   0.0000683  -0.0004355  -0.0007772   0.0000597
           19          20          21          22          23          24
    1  -0.0005913   0.0002416   0.0002668   0.0004060   0.0005345   0.0002714
    2  -0.0000416  -0.0001316   0.0006277   0.0006097  -0.0006501   0.0004867
    3  -0.0009107   0.0001544   0.0006049   0.0003152   0.0000591   0.0002935
           25          26          27          28          29          30
    1   0.0001201  -0.0001803  -0.0001279  -0.0005321  -0.0005454  -0.0000209
    2  -0.0000264  -0.0000202   0.0001152  -0.0004557   0.0009210   0.0000506
    3   0.0017190  -0.0010416   0.0006022  -0.0004919   0.0006398  -0.0002461
           31          32          33          34          35          36
    1   0.0001136  -0.0002879   0.0009999  -0.0003727  -0.0005053   0.0000098
    2  -0.0006077  -0.0000200   0.0010329   0.0002023  -0.0003345  -0.0003336
    3   0.0000817  -0.0001425  -0.0008458   0.0003781  -0.0004625   0.0002254
           37          38          39          40
    1  -0.0005196   0.0008131   0.0000723   0.0000827
    2   0.0000518  -0.0002307   0.0004551  -0.0004157
    3   0.0001494  -0.0004081  -0.0006246   0.0005547
 Max gradient component =       3.887E-03
 RMS gradient           =       1.012E-03
 Gradient time:  CPU 13.90 s  wall 6.96 s
 Geometry Optimization Parameters
   NAtoms,    NIC,     NZ,  NCons,   NDum,   NFix, NCnnct, MaxDiis
       40     289       0       0       0       0       0       0

 Cartesian Hessian Update
 Hessian Updated using BFGS Update


** GEOMETRY OPTIMIZATION IN DELOCALIZED INTERNAL COORDINATES **
   Searching for a Minimum

   Optimization Cycle:   4

                       Coordinates (Angstroms)
     ATOM                X               Y               Z
      1  C         6.1210341266   -0.6926449247   -0.8729444108
      2  C         5.1235850874    0.0127090520   -0.2674714796
      3  C         3.7186753340   -0.3227746000   -0.3599966797
      4  C         2.6438064530    0.3372331890    0.2056306256
      5  C         1.2994897213   -0.1862662603   -0.0354691426
      6  C         0.1194871101    0.3640580947    0.3968266071
      7  H         7.1720056454   -0.4075483985   -0.7821111605
      8  H         5.9089625076   -1.5787106374   -1.4816623030
      9  H         5.3940589176    0.8945495647    0.3280504299
     10  H         3.4921542061   -1.2146658305   -0.9624587232
     11  H         1.2638538751   -1.0907338939   -0.6561265556
     12  C        -1.2535961685   -0.1200782916    0.1477810652
     13  H         0.1761694844    1.3166357398    0.9396772733
     14  C        -1.6432815831   -1.4282985226    0.3057392928
     15  C        -3.0684492221   -1.9119250632   -0.0045931236
     16  C        -4.1220863730   -0.7785482645   -0.0424112420
     17  H        -3.3530745170   -2.6847704766    0.7331534366
     18  H        -3.0624017883   -2.4357642261   -0.9855796362
     19  C        -3.5696933952    0.4009720600   -0.8725185060
     20  H        -4.3459050284   -0.4471502512    0.9885196643
     21  H        -5.0722047600   -1.1465416013   -0.4675612638
     22  C        -2.2649620603    1.0133097452   -0.2607456214
     23  H        -4.3247718135    1.2011878454   -0.9726714477
     24  H        -3.3464741370    0.0452088749   -1.8969415524
     25  C        -0.7356295142   -2.5413723306    0.8187997206
     26  H         0.2088536704   -2.1640903137    1.2315242349
     27  H        -0.4848863335   -3.2625962960    0.0163531432
     28  H        -1.2603036499   -3.1260098160    1.5983949385
     29  C        -2.6293110611    1.8754548741    0.9995003892
     30  H        -3.0982687794    1.2609304740    1.7844193426
     31  H        -3.3353112068    2.6769896681    0.7198847278
     32  H        -1.7364289521    2.3533340550    1.4359290412
     33  C        -1.6371232575    1.9504018284   -1.3477225081
     34  H        -1.3269253132    1.3672916451   -2.2306293326
     35  H        -0.7544460943    2.4904538307   -0.9727691672
     36  H        -2.3825655050    2.6976843192   -1.6735617049
     37  C         2.7972983560    1.5886793200    1.0624339533
     38  H         3.8488652097    1.8857898278    1.1826596199
     39  H         2.3711370282    1.4349998901    2.0692734788
     40  H         2.2567869065    2.4434877505    0.6178301278
   Point Group: c1    Number of degrees of freedom:   114


   Energy is   -623.607895140

 Hessian Updated using BFGS Update

102 Hessian modes will be used to form the next step
  Hessian Eigenvalues:
     0.002694    0.002774    0.004051    0.006868    0.006935    0.008342
     0.009439    0.009882    0.010567    0.010679    0.010975    0.013659
     0.016178    0.019368    0.019680    0.020375    0.022223    0.028059
     0.030048    0.030859    0.030859    0.031186    0.033915    0.045751
     0.046955    0.050075    0.052485    0.053477    0.053709    0.054127
     0.054558    0.054968    0.060204    0.064422    0.068218    0.068293
     0.073934    0.074660    0.076997    0.078337    0.082702    0.095225
     0.097625    0.119514    0.133235    0.145132    0.159252    0.159587
     0.159806    0.159954    0.161285    0.164775    0.186093    0.207803
     0.219957    0.221382    0.225237    0.227510    0.247850    0.249771
     0.254214    0.263507    0.269827    0.276689    0.278505    0.286179
     0.294754    0.297328    0.305856    0.306423    0.312961    0.318052
     0.321540    0.323440    0.323884    0.324079    0.324129    0.324485
     0.324517    0.324900    0.325483    0.325732    0.325798    0.325926
     0.326349    0.327131    0.327327    0.327712    0.333942    0.334723
     0.336617    0.349688    0.352656    0.353966    0.354501    0.358172
     0.358786    0.408346    0.531862    0.534548    0.573130    0.599100

 Minimum Search - Taking Simple RFO Step
 Searching for Lamda that Minimizes Along All modes
 Value Taken    Lamda =  -0.00052312
 Step Taken.  Stepsize is  0.124055

                             Maximum     Tolerance    Cnvgd?
         Gradient           0.003029      0.000300      NO
         Displacement       0.062605      0.001200      NO
         Energy change     -0.001137      0.000001      NO


 New Cartesian Coordinates Obtained by Inverse Iteration

 Displacement from previous Coordinates is:  0.252860
 ----------------------------------------------------------------
             Standard Nuclear Orientation (Angstroms)
    I     Atom           X                Y                Z
 ----------------------------------------------------------------
    1      C       6.1158719318    -0.7085842011    -0.8696772545
    2      C       5.1288814264     0.0133900398    -0.2708670796
[...]
     35 H                     0.112544
     36 H                     0.109115
     37 C                    -0.451089
     38 H                     0.128575
     39 H                     0.138843
     40 H                     0.138967
  ----------------------------------------
  Sum of atomic charges =    -0.000000

 -----------------------------------------------------------------
                    Cartesian Multipole Moments
 -----------------------------------------------------------------
    Charge (ESU x 10^10)
                -0.0000
    Dipole Moment (Debye)
         X      -0.7157      Y       0.1581      Z       0.1929
       Tot       0.7579
    Quadrupole Moments (Debye-Ang)
        XX     -98.8591     XY       2.0641     YY     -97.7069
        XZ       0.9147     YZ       2.9002     ZZ    -102.3056
    Octopole Moments (Debye-Ang^2)
       XXX       3.2721    XXY       5.8866    XYY      -0.3704
       YYY      -1.9782    XXZ      -0.0183    XYZ      10.8753
       YYZ      -0.4859    XZZ      -5.2579    YZZ      -2.1490
       ZZZ       1.9827
    Hexadecapole Moments (Debye-Ang^3)
      XXXX   -5940.8338   XXXY      30.0056   XXYY   -1215.9869
      XYYY      -8.4793   YYYY   -1284.0383   XXXZ      35.8818
      XXYZ      49.7477   XYYZ       8.1806   YYYZ      16.4686
      XXZZ   -1126.2349   XYZZ      -7.0476   YYZZ    -293.6194
      XZZZ      51.8903   YZZZ      17.6071   ZZZZ    -486.3146
 -----------------------------------------------------------------
 Calculating analytic gradient of the SCF energy
 Gradient of SCF Energy
            1           2           3           4           5           6
    1  -0.0000020   0.0000216  -0.0000244   0.0000083  -0.0000168   0.0000535
    2   0.0000180   0.0000108  -0.0000050   0.0000117   0.0000347  -0.0000220
    3  -0.0000123  -0.0000204   0.0000020  -0.0000108  -0.0000078  -0.0000263
            7           8           9          10          11          12
    1  -0.0000025  -0.0000005   0.0000003   0.0000049   0.0000083  -0.0000462
    2   0.0000171   0.0000104   0.0000117   0.0000063   0.0000097   0.0000110
    3  -0.0000213  -0.0000107  -0.0000234  -0.0000065  -0.0000098   0.0000218
           13          14          15          16          17          18
    1  -0.0000058   0.0000164   0.0000147  -0.0000074   0.0000120   0.0000017
    2   0.0000174   0.0000138  -0.0000063  -0.0000067  -0.0000060  -0.0000234
    3  -0.0000029   0.0000024  -0.0000055   0.0000166   0.0000373   0.0000293
           19          20          21          22          23          24
    1  -0.0000150   0.0000029   0.0000066   0.0000208  -0.0000037  -0.0000004
    2  -0.0000122  -0.0000106  -0.0000139  -0.0000344  -0.0000181  -0.0000171
    3   0.0000091   0.0000156   0.0000150   0.0000091   0.0000075   0.0000066
           25          26          27          28          29          30
    1   0.0000098  -0.0000042   0.0000052   0.0000157  -0.0000079   0.0000003
    2  -0.0000024  -0.0000119   0.0000026   0.0000016   0.0000045  -0.0000029
    3   0.0000151   0.0000115   0.0000090   0.0000185   0.0000045   0.0000062
           31          32          33          34          35          36
    1  -0.0000047  -0.0000024   0.0000005  -0.0000104  -0.0000071  -0.0000154
    2  -0.0000070   0.0000009   0.0000064  -0.0000182  -0.0000134  -0.0000145
    3  -0.0000016  -0.0000067   0.0000001  -0.0000050  -0.0000075  -0.0000011
           37          38          39          40
    1  -0.0000077  -0.0000126   0.0000047  -0.0000107
    2   0.0000161   0.0000220   0.0000124   0.0000072
    3  -0.0000246  -0.0000244  -0.0000021  -0.0000065
 Max gradient component =       5.348E-05
 RMS gradient           =       1.481E-05
 Gradient time:  CPU 13.98 s  wall 7.00 s
 Geometry Optimization Parameters
   NAtoms,    NIC,     NZ,  NCons,   NDum,   NFix, NCnnct, MaxDiis
       40     289       0       0       0       0       0       0

 Cartesian Hessian Update
 Hessian Updated using BFGS Update


** GEOMETRY OPTIMIZATION IN DELOCALIZED INTERNAL COORDINATES **
   Searching for a Minimum

   Optimization Cycle:  11

                       Coordinates (Angstroms)
     ATOM                X               Y               Z
      1  C         6.1119828290   -0.7053632800   -0.8842699163
      2  C         5.1232689876    0.0101319448   -0.2793416582
      3  C         3.7128453139   -0.3335257745   -0.3504273361
      4  C         2.6421816455    0.3323870962    0.2152377827
      5  C         1.2933698477   -0.1959556728   -0.0121135451
      6  C         0.1198625993    0.3758481529    0.4051568855
      7  H         7.1621272736   -0.4142157039   -0.8106836142
      8  H         5.8942141433   -1.6024697947   -1.4727145664
      9  H         5.4061094492    0.9014543659    0.2921660312
     10  H         3.4834339323   -1.2339141086   -0.9362978489
     11  H         1.2486952407   -1.1156381614   -0.6063848969
     12  C        -1.2569617984   -0.1123004005    0.1542691876
     13  H         0.1816960270    1.3410545296    0.9227623979
     14  C        -1.6424794934   -1.4237984529    0.3093836589
     15  C        -3.0673906817   -1.9094479366    0.0186874905
     16  C        -4.1218999718   -0.7804722217   -0.0555765347
     17  H        -3.3584592950   -2.6515833850    0.7872106830
     18  H        -3.0598559976   -2.4712608222   -0.9411822688
     19  C        -3.5649607040    0.3998580817   -0.8795444084
     20  H        -4.3780359837   -0.4429742679    0.9657212228
     21  H        -5.0570211511   -1.1624911765   -0.5041605025
     22  C        -2.2691584151    1.0143977015   -0.2556691814
     23  H        -4.3224623640    1.1987745936   -0.9864270138
     24  H        -3.3332376039    0.0424741954   -1.9022544303
     25  C        -0.7175143555   -2.5367191745    0.7919193267
     26  H         0.1995695767   -2.1538336087    1.2611712450
     27  H        -0.4149989639   -3.2054827578   -0.0386039590
     28  H        -1.2435939038   -3.1747109010    1.5267142962
     29  C        -2.6398831867    1.8714855252    1.0044614847
     30  H        -3.1326305812    1.2600717615    1.7775668659
     31  H        -3.3242009110    2.6916599542    0.7212278463
     32  H        -1.7440140184    2.3269367676    1.4598209345
     33  C        -1.6332989996    1.9567726386   -1.3316503589
     34  H        -1.2881459654    1.3768096453   -2.2044907274
     35  H        -0.7697872095    2.5145123904   -0.9348379074
     36  H        -2.3813846676    2.6918783539   -1.6799974996
     37  C         2.7927937431    1.5959765392    1.0547680483
     38  H         3.8435272278    1.8728831223    1.2163672590
     39  H         2.3226410175    1.4661564603    2.0461272383
     40  H         2.2911804940    2.4555054314    0.5723238412
   Point Group: c1    Number of degrees of freedom:   114


   Energy is   -623.608196578

 Hessian Updated using BFGS Update

110 Hessian modes will be used to form the next step
  Hessian Eigenvalues:
     0.001462    0.002686    0.002862    0.003257    0.004926    0.007360
     0.009515    0.010178    0.010743    0.010992    0.013672    0.016010
     0.019194    0.019705    0.020258    0.020542    0.022131    0.027932
     0.030156    0.030843    0.030864    0.031708    0.033760    0.046149
     0.047132    0.050235    0.053602    0.053697    0.053951    0.054596
     0.054991    0.059937    0.062210    0.065412    0.068210    0.070284
     0.073963    0.074625    0.077400    0.078428    0.083063    0.095694
     0.097745    0.120171    0.141579    0.148903    0.158472    0.158892
     0.159345    0.159693    0.159873    0.159993    0.160000    0.160030
     0.160551    0.160938    0.161649    0.162027    0.163528    0.170887
     0.187328    0.206921    0.212236    0.220956    0.227629    0.228739
     0.250138    0.252071    0.262653    0.274750    0.276179    0.279956
     0.289642    0.290730    0.298812    0.304074    0.307990    0.308513
     0.314045    0.320410    0.322938    0.323151    0.323961    0.324089
     0.324198    0.324450    0.324553    0.325243    0.325501    0.325788
     0.325992    0.326769    0.327214    0.327618    0.330815    0.331788
     0.335142    0.336527    0.349653    0.352010    0.352620    0.354185
     0.355311    0.358682    0.367919    0.388401    0.533522    0.559457
     0.571846    0.595437

 Minimum Search - Taking Simple RFO Step
 Searching for Lamda that Minimizes Along All modes
 Value Taken    Lamda =   0.00000000
 Step Taken.  Stepsize is  0.011990

                             Maximum     Tolerance    Cnvgd?
         Gradient           0.000065      0.000300     YES
         Displacement       0.005158      0.001200      NO
         Energy change     -0.000001      0.000001     YES

 Final energy is   -623.608196577911     


 ******************************
 **  OPTIMIZATION CONVERGED  **
 ******************************

                       Coordinates (Angstroms)
     ATOM                X               Y               Z
      1  C         6.1119828290   -0.7053632800   -0.8842699163
      2  C         5.1232689876    0.0101319448   -0.2793416582
      3  C         3.7128453139   -0.3335257745   -0.3504273361
      4  C         2.6421816455    0.3323870962    0.2152377827
      5  C         1.2933698477   -0.1959556728   -0.0121135451
      6  C         0.1198625993    0.3758481529    0.4051568855
      7  H         7.1621272736   -0.4142157039   -0.8106836142
      8  H         5.8942141433   -1.6024697947   -1.4727145664
      9  H         5.4061094492    0.9014543659    0.2921660312
     10  H         3.4834339323   -1.2339141086   -0.9362978489
     11  H         1.2486952407   -1.1156381614   -0.6063848969
     12  C        -1.2569617984   -0.1123004005    0.1542691876
     13  H         0.1816960270    1.3410545296    0.9227623979
     14  C        -1.6424794934   -1.4237984529    0.3093836589
     15  C        -3.0673906817   -1.9094479366    0.0186874905
     16  C        -4.1218999718   -0.7804722217   -0.0555765347
     17  H        -3.3584592950   -2.6515833850    0.7872106830
     18  H        -3.0598559976   -2.4712608222   -0.9411822688
     19  C        -3.5649607040    0.3998580817   -0.8795444084
     20  H        -4.3780359837   -0.4429742679    0.9657212228
     21  H        -5.0570211511   -1.1624911765   -0.5041605025
     22  C        -2.2691584151    1.0143977015   -0.2556691814
     23  H        -4.3224623640    1.1987745936   -0.9864270138
     24  H        -3.3332376039    0.0424741954   -1.9022544303
     25  C        -0.7175143555   -2.5367191745    0.7919193267
     26  H         0.1995695767   -2.1538336087    1.2611712450
     27  H        -0.4149989639   -3.2054827578   -0.0386039590
     28  H        -1.2435939038   -3.1747109010    1.5267142962
     29  C        -2.6398831867    1.8714855252    1.0044614847
     30  H        -3.1326305812    1.2600717615    1.7775668659
     31  H        -3.3242009110    2.6916599542    0.7212278463
     32  H        -1.7440140184    2.3269367676    1.4598209345
     33  C        -1.6332989996    1.9567726386   -1.3316503589
     34  H        -1.2881459654    1.3768096453   -2.2044907274
     35  H        -0.7697872095    2.5145123904   -0.9348379074
     36  H        -2.3813846676    2.6918783539   -1.6799974996
     37  C         2.7927937431    1.5959765392    1.0547680483
     38  H         3.8435272278    1.8728831223    1.2163672590
     39  H         2.3226410175    1.4661564603    2.0461272383
     40  H         2.2911804940    2.4555054314    0.5723238412

Z-matrix Print:
$molecule
0 1
C 
C  1 1.375759
C  1 1.482187 2 123.722930
H  3 1.096979 1 114.961589 2 -138.769095 0
C  3 1.370472 1 127.333987 2 45.907661 0
H  5 1.095888 3 118.708006 1 0.436774 0
C  5 1.466331 3 126.164811 1 177.943075 0
C  7 1.381933 5 118.396709 3 -175.996808 0
H  8 1.098441 7 116.839966 5 -0.481295 0
C  8 1.453427 7 128.161393 5 179.049259 0
H  10 1.095936 8 117.920881 7 0.362953 0
C  10 1.362140 8 123.949197 7 -179.356451 0
H  12 1.092239 10 121.866526 8 179.822938 0
H  12 1.094756 10 121.652236 8 -0.018759 0
C  7 1.524517 5 118.353126 3 3.512182 0
H  15 1.098559 7 112.607764 5 176.474260 0
H  15 1.104848 7 110.774455 5 55.749706 0
H  15 1.105965 7 111.046791 5 -62.805188 0
C  2 1.525449 1 124.141774 3 1.626979 0
H  19 1.099018 2 112.759660 1 15.644061 0
H  19 1.106217 2 110.030440 1 136.679250 0
H  19 1.108390 2 111.633449 1 -105.631820 0
C  2 1.533210 1 122.752392 3 -178.843180 0
H  23 1.107300 2 108.965496 1 -140.645249 0
H  23 1.112223 2 108.501695 1 105.314771 0
C  23 1.546639 2 114.301356 1 -17.036891 0
H  26 1.105268 23 110.123139 2 166.224874 0
H  26 1.105694 23 109.657634 2 -76.870245 0
C  26 1.543465 23 109.744617 2 44.159956 0
H  29 1.106119 26 110.904580 23 177.252488 0
H  29 1.107860 26 108.759253 23 60.237515 0
C  29 1.563964 26 112.737110 23 -60.473699 0
C  32 1.565287 29 107.393362 26 167.248490 0
H  33 1.101901 32 112.057014 29 173.991643 0
H  33 1.103330 32 110.757636 29 -65.582404 0
H  33 1.105151 32 110.008096 29 53.965396 0
C  32 1.568428 29 109.839246 26 -74.799071 0
H  37 1.101961 32 111.479015 29 60.358524 0
H  37 1.103345 32 111.422331 29 -179.399482 0
H  37 1.105078 32 110.244407 29 -60.011788 0
$end

 
 --------------------------------------------------------------
 
                    Orbital Energies (a.u.)
 --------------------------------------------------------------
 
 Alpha MOs
 -- Occupied --
 -9.932  -9.930  -9.921  -9.921  -9.916  -9.916  -9.915  -9.914
 -9.914  -9.914  -9.910  -9.910  -9.907  -9.904  -9.903  -9.900
 -0.753  -0.733  -0.696  -0.693  -0.673  -0.640  -0.611  -0.602
 -0.597  -0.592  -0.546  -0.516  -0.496  -0.478  -0.460  -0.436
 -0.417  -0.401  -0.397  -0.384  -0.379  -0.365  -0.363  -0.361
 -0.352  -0.344  -0.342  -0.339  -0.334  -0.330  -0.316  -0.314
 -0.305  -0.297  -0.293  -0.288  -0.285  -0.272  -0.267  -0.257
 -0.246  -0.235  -0.194  -0.156
 -- Virtual --
 -0.063  -0.001   0.038   0.058   0.069   0.073   0.084   0.089
  0.101   0.103   0.106   0.113   0.119   0.124   0.131   0.140
  0.143   0.151   0.157   0.161   0.165   0.167   0.171   0.181
  0.183   0.188   0.194   0.197   0.198   0.207   0.214   0.218
  0.229   0.246   0.249   0.253   0.260   0.298   0.323   0.363
  0.368   0.384   0.410   0.433   0.478   0.486   0.489   0.495
  0.500   0.510   0.517   0.526   0.532   0.541   0.547   0.554
  0.565   0.568   0.575   0.583   0.606   0.612   0.615   0.628
  0.633   0.636   0.649   0.655   0.660   0.672   0.683   0.697
  0.710   0.714   0.723   0.733   0.743   0.765   0.778   0.784
  0.793   0.800   0.803   0.810   0.829   0.838   0.853   0.856
  0.868   0.877   0.883   0.886   0.901   0.910   0.911   0.917
  0.923   0.932   0.935   0.943   0.950   0.952   0.957   0.967
  0.971   0.984   0.994   1.021   1.045   1.065   1.074   1.119
  1.125   1.130   1.149   1.171   1.178   1.198   1.227   1.251
  1.284   1.298   1.333   1.395   1.431   1.452   1.530   1.545
  1.575   1.638   1.737   1.794
 --------------------------------------------------------------
 
          Ground-State Mulliken Net Atomic Charges

     Atom                 Charge (a.u.)
  ----------------------------------------
      1 C                    -0.284378
      2 C                    -0.027790
      3 C                    -0.163563
      4 C                     0.156399
      5 C                    -0.117228
      6 C                    -0.159686
      7 H                     0.105199
      8 H                     0.106691
      9 H                     0.094239
     10 H                     0.086439
     11 H                     0.096320
     12 C                     0.084286
     13 H                     0.097552
     14 C                     0.095565
     15 C                    -0.274060
     16 C                    -0.217931
     17 H                     0.110001
     18 H                     0.120944
     19 C                    -0.206956
     20 H                     0.114350
     21 H                     0.100793
     22 C                     0.014672
     23 H                     0.097125
     24 H                     0.105528
     25 C                    -0.438463
     26 H                     0.140415
     27 H                     0.127839
     28 H                     0.117352
     29 C                    -0.368992
     30 H                     0.121869
     31 H                     0.113270
     32 H                     0.116489
     33 C                    -0.360613
     34 H                     0.119368
     35 H                     0.112544
     36 H                     0.109115
     37 C                    -0.451089
     38 H                     0.128575
     39 H                     0.138843
     40 H                     0.138967
  ----------------------------------------
  Sum of atomic charges =    -0.000000

 -----------------------------------------------------------------
                    Cartesian Multipole Moments
 -----------------------------------------------------------------
    Charge (ESU x 10^10)
                -0.0000
    Dipole Moment (Debye)
         X      -0.7157      Y       0.1581      Z       0.1929
       Tot       0.7579
    Quadrupole Moments (Debye-Ang)
        XX     -98.8591     XY       2.0641     YY     -97.7069
        XZ       0.9147     YZ       2.9002     ZZ    -102.3056
    Octopole Moments (Debye-Ang^2)
       XXX       3.2721    XXY       5.8866    XYY      -0.3704
       YYY      -1.9782    XXZ      -0.0183    XYZ      10.8753
       YYZ      -0.4859    XZZ      -5.2579    YZZ      -2.1490
       ZZZ       1.9827
    Hexadecapole Moments (Debye-Ang^3)
      XXXX   -5940.8338   XXXY      30.0056   XXYY   -1215.9869
      XYYY      -8.4793   YYYY   -1284.0383   XXXZ      35.8818
      XXYZ      49.7477   XYYZ       8.1806   YYYZ      16.4686
      XXZZ   -1126.2349   XYZZ      -7.0476   YYZZ    -293.6194
      XZZZ      51.8903   YZZZ      17.6071   ZZZZ    -486.3146
 -----------------------------------------------------------------
Archival summary:
1\1\cub-0-11.local\OPT\ProcedureUnspecified\6-31G\1624\c295_lal\WedOct3100:27:232018WedOct3100:27:232018\0\\#,OPT,ProcedureUnspecified,6-31G,\\0,1\C\C,1,1.37576\C,1,1.48219,2,123.723\H,3,1.09698,1,114.962,2,-138.769,0\C,3,1.37047,1,127.334,2,45.9077,0\H,5,1.09589,3,118.708,1,0.436774,0\C,5,1.46633,3,126.165,1,177.943,0\C,7,1.38193,5,118.397,3,-175.997,0\H,8,1.09844,7,116.84,5,-0.481295,0\C,8,1.45343,7,128.161,5,179.049,0\H,10,1.09594,8,117.921,7,0.362953,0\C,10,1.36214,8,123.949,7,-179.356,0\H,12,1.09224,10,121.867,8,179.823,0\H,12,1.09476,10,121.652,8,-0.0187594,0\C,7,1.52452,5,118.353,3,3.51218,0\H,15,1.09856,7,112.608,5,176.474,0\H,15,1.10485,7,110.774,5,55.7497,0\H,15,1.10596,7,111.047,5,-62.8052,0\C,2,1.52545,1,124.142,3,1.62698,0\H,19,1.09902,2,112.76,1,15.6441,0\H,19,1.10622,2,110.03,1,136.679,0\H,19,1.10839,2,111.633,1,-105.632,0\C,2,1.53321,1,122.752,3,-178.843,0\H,23,1.1073,2,108.965,1,-140.645,0\H,23,1.11222,2,108.502,1,105.315,0\C,23,1.54664,2,114.301,1,-17.0369,0\H,26,1.10527,23,110.123,2,166.225,0\H,26,1.10569,23,109.658,2,-76.8702,0\C,26,1.54346,23,109.745,2,44.16,0\H,29,1.10612,26,110.905,23,177.252,0\H,29,1.10786,26,108.759,23,60.2375,0\C,29,1.56396,26,112.737,23,-60.4737,0\C,32,1.56529,29,107.393,26,167.248,0\H,33,1.1019,32,112.057,29,173.992,0\H,33,1.10333,32,110.758,29,-65.5824,0\H,33,1.10515,32,110.008,29,53.9654,0\C,32,1.56843,29,109.839,26,-74.7991,0\H,37,1.10196,32,111.479,29,60.3585,0\H,37,1.10334,32,111.422,29,-179.399,0\H,37,1.10508,32,110.244,29,-60.0118,0\\\@

 Total job time:  452.39s(wall), 903.82s(cpu) 
 Wed Oct 31 00:27:23 2018

        *************************************************************
        *                                                           *
        *  Thank you very much for using Q-Chem.  Have a nice day.  *
        *                                                           *
        *************************************************************


