
Running Job 1 of 2 diox_ts_sto3g_gga.in
qchem diox_ts_sto3g_gga.in_30590.0 /scr/c295_lal/157332/qchem30590/ 1
/usr/software/qchem_511/exe/qcprog.exe_s diox_ts_sto3g_gga.in_30590.0 /scr/c295_lal/157332/qchem30590/
Check license passed

                  Welcome to Q-Chem
     A Quantum Leap Into The Future Of Chemistry


 Q-Chem 5.1, Q-Chem, Inc., Pleasanton, CA (2018)

 Yihan Shao,  Zhengting Gan,  E. Epifanovsky,  A. T. B. Gilbert,  M. Wormit,  
 J. Kussmann,  A. W. Lange,  A. Behn,  Jia Deng,  Xintian Feng,  D. Ghosh,  
 M. Goldey,  P. R. Horn,  L. D. Jacobson,  I. Kaliman,  T. Kus,  A. Landau,  
 Jie Liu,  E. I. Proynov,  R. M. Richard,  R. P. Steele,  E. J. Sundstrom,  
 H. L. Woodcock III,  P. M. Zimmerman,  D. Zuev,  B. Albrecht,  E. Alguire,  
 S. A. Baeppler,  D. Barton,  Z. Benda,  Y. A. Bernard,  E. J. Berquist,  
 K. B. Bravaya,  H. Burton,  D. Casanova,  Chun-Min Chang,  Yunqing Chen,  
 A. Chien,  K. D. Closser,  M. P. Coons,  S. Coriani,  S. Dasgupta,  
 A. L. Dempwolff,  M. Diedenhofen,  Hainam Do,  R. G. Edgar,  Po-Tung Fang,  
 S. Faraji,  S. Fatehi,  Qingguo Feng,  K. D. Fenk,  J. Fosso-Tande,  
 Qinghui Ge,  A. Ghysels,  G. Gidofalvi,  J. Gomes,  J. Gonthier,  A. Gunina,  
 D. Hait,  M. W. D. Hanson-Heine,  P. H. P. Harbach,  A. W. Hauser,  
 J. E. Herr,  E. G. Hohenstein,  Z. C. Holden,  Kerwin Hui,  B. C. Huynh,  
 T.-C. Jagau,  Hyunjun Ji,  B. Kaduk,  K. Khistyaev,  Jaehoon Kim,  
 P. Klunzinger,  K. Koh,  D. Kosenkov,  L. Koulias,  T. Kowalczyk,  
 C. M. Krauter,  A. Kunitsa,  Ka Un Lao,  A. Laurent,  K. V. Lawler,  
 Joonho Lee,  D. Lefrancois,  S. Lehtola,  D. S. Levine,  Yi-Pei Li,  
 You-Sheng Lin,  Fenglai Liu,  E. Livshits,  A. Luenser,  P. Manohar,  
 E. Mansoor,  S. F. Manzer,  Shan-Ping Mao,  Yuezhi Mao,  N. Mardirossian,  
 A. V. Marenich,  T. Markovich,  L. A. Martinez-Martinez,  S. A. Maurer,  
 N. J. Mayhall,  S. C. McKenzie,  J.-M. Mewes,  A. F. Morrison,  
 J. W. Mullinax,  K. Nanda,  T. S. Nguyen-Beck,  R. Olivares-Amaya,  
 J. A. Parkhill,  T. M. Perrine,  F. Plasser,  P. Pokhilko,  S. Prager,  
 A. Prociuk,  E. Ramos,  D. R. Rehn,  F. Rob,  M. Schneider,  N. Sergueev,  
 S. M. Sharada,  S. Sharma,  D. W. Small,  T. Stauch,  T. Stein,  
 Yu-Chuan Su,  A. J. W. Thom,  A. Tkatchenko,  T. Tsuchimochi,  N. M. Tubman,  
 L. Vogt,  M. L. Vidal,  O. Vydrov,  M. A. Watson,  J. Wenzel,  
 M. de Wergifosse,  T. A. Wesolowski,  A. White,  J. Witte,  A. Yamada,  
 Jun Yang,  K. Yao,  S. Yeganeh,  S. R. Yost,  Zhi-Qiang You,  A. Zech,  
 Igor Ying Zhang,  Xing Zhang,  Yan Zhao,  Ying Zhu,  B. R. Brooks,  
 G. K. L. Chan,  C. J. Cramer,  M. S. Gordon,  W. J. Hehre,  A. Klamt,  
 M. W. Schmidt,  C. D. Sherrill,  D. G. Truhlar,  A. Aspuru-Guzik,  R. Baer,  
 A. T. Bell,  N. A. Besley,  Jeng-Da Chai,  A. E. DePrince, III,  
 R. A. DiStasio Jr.,  A. Dreuw,  B. D. Dunietz,  T. R. Furlani,  
 Chao-Ping Hsu,  Yousung Jung,  Jing Kong,  D. S. Lambrecht,  WanZhen Liang,  
 C. Ochsenfeld,  V. A. Rassolov,  L. V. Slipchenko,  J. E. Subotnik,  
 T. Van Voorhis,  J. M. Herbert,  A. I. Krylov,  P. M. W. Gill,  M. Head-Gordon

 Contributors to earlier versions of Q-Chem not listed above: 
 R. D. Adamson,  B. Austin,  J. Baker,  G. J. O. Beran,  K. Brandhorst,  
 S. T. Brown,  E. F. C. Byrd,  A. K. Chakraborty,  C.-L. Cheng,  
 Siu Hung Chien,  D. M. Chipman,  D. L. Crittenden,  H. Dachsel,  
 R. J. Doerksen,  A. D. Dutoi,  L. Fusti-Molnar,  W. A. Goddard III,  
 A. Golubeva-Zadorozhnaya,  S. R. Gwaltney,  G. Hawkins,  A. Heyden,  
 S. Hirata,  G. Kedziora,  F. J. Keil,  C. Kelley,  Jihan Kim,  R. A. King,  
 R. Z. Khaliullin,  P. P. Korambath,  W. Kurlancheek,  A. M. Lee,  M. S. Lee,  
 S. V. Levchenko,  Ching Yeh Lin,  D. Liotard,  R. C. Lochan,  I. Lotan,  
 P. E. Maslen,  N. Nair,  D. P. O'Neill,  D. Neuhauser,  E. Neuscamman,  
 C. M. Oana,  R. Olson,  B. Peters,  R. Peverati,  P. A. Pieniazek,  
 Y. M. Rhee,  J. Ritchie,  M. A. Rohrdanz,  E. Rosta,  N. J. Russ,  
 H. F. Schaefer III,  N. E. Schultz,  N. Shenvi,  A. C. Simmonett,  A. Sodt,  
 D. Stuck,  K. S. Thanthiriwatte,  V. Vanovschi,  Tao Wang,  A. Warshel,  
 C. F. Williams,  Q. Wu,  X. Xu,  W. Zhang

 Please cite Q-Chem as follows:
 Y. Shao et al., Mol. Phys. 113, 184-215 (2015)
 DOI: 10.1080/00268976.2014.952696

 Q-Chem 5.1.1 for Intel X86 EM64T Linux

 Parts of Q-Chem use Armadillo 8.300.2 (Tropical Shenanigans).
 http://arma.sourceforge.net/

 Q-Chem begins on Wed Nov 28 08:19:15 2018  

Host: cub-0-6.local
0

     Scratch files written to /scr/c295_lal/157332/qchem30590//
 Aug318 |scratch|qcdevops|jenkins|workspace|build_RNUM -1
Processing $rem in /usr/software/qchem_511/config/preferences.
 MEM_TOTAL  2000 
Input Ideriv = 2
Curr. Ideriv = -1
Max.  Ideriv = 2

Checking the input file for inconsistencies... 	...done.

--------------------------------------------------------------
User input:
--------------------------------------------------------------
$molecule
2 5
Fe         2.61704        1.85506       -0.75276
H         -4.18216        2.25657        0.35256
H         -2.07080        3.16899        1.66390
H         -4.14986        1.46756        1.95275
C         -3.88847        1.30957        0.87945
C         -1.59245        2.16533        1.71238
H         -5.74047        0.35444        0.19434
H         -1.71225        1.81145        2.76331
C         -4.66098        0.09922        0.25640
C         -2.35104        1.20801        0.76431
H         -0.51878        2.27150        1.47480
H         -4.22270        0.72290       -1.80272
C         -4.09676       -0.18493       -1.17314
H         -4.55931       -0.79332        0.91002
C         -1.73678        0.32107       -0.16695
H         -4.66235       -1.01137       -1.65361
O          0.57415        1.54323       -0.33627
H         -1.98489        0.61233       -2.96430
C         -2.55901       -0.58672       -1.15839
C         -2.00881       -0.45027       -2.64785
C         -0.21683        0.14477       -0.23460
H          0.09022        0.00518        2.03133
O          1.50786        1.13668        0.82864
C          0.65303       -0.21269        1.08888
H         -2.70082       -0.99767       -3.31901
C         -2.40302       -2.10946       -0.69074
H         -2.81616       -2.25408        0.32754
H         -1.00071       -0.89450       -2.77261
H          0.07771       -0.47561       -1.11628
H         -2.96788       -2.74968       -1.39821
C          1.49145       -1.47788        1.22974
H         -1.34188       -2.43076       -0.70021
C          1.59359       -2.07845        2.65415
H          1.98940       -1.61999       -0.89637
C          2.11702       -2.07062        0.11265
C          2.92808       -3.28888        0.17625
H          3.08875       -3.76364        1.16544
H          3.35753       -3.43085       -1.97158
C          3.48940       -3.86848       -0.95813
H          4.09126       -4.80068       -0.88478
H          2.20317       -2.95744        2.62774
H          0.61531       -2.33325        3.00479
H          2.03284       -1.35948        3.31371
$end

$rem
JOBTYPE         freq
EXCHANGE          B3LYP
BASIS           STO-3G
SCF_MAX_CYCLES  250
SYMMETRY        false
SYM_IGNORE      true
$end

--------------------------------------------------------------
 ----------------------------------------------------------------
             Standard Nuclear Orientation (Angstroms)
    I     Atom           X                Y                Z
 ----------------------------------------------------------------
    1      Fe      2.6170400000     1.8550600000    -0.7527600000
    2      H      -4.1821600000     2.2565700000     0.3525600000
    3      H      -2.0708000000     3.1689900000     1.6639000000
    4      H      -4.1498600000     1.4675600000     1.9527500000
    5      C      -3.8884700000     1.3095700000     0.8794500000
    6      C      -1.5924500000     2.1653300000     1.7123800000
    7      H      -5.7404700000     0.3544400000     0.1943400000
    8      H      -1.7122500000     1.8114500000     2.7633100000
    9      C      -4.6609800000     0.0992200000     0.2564000000
   10      C      -2.3510400000     1.2080100000     0.7643100000
   11      H      -0.5187800000     2.2715000000     1.4748000000
   12      H      -4.2227000000     0.7229000000    -1.8027200000
   13      C      -4.0967600000    -0.1849300000    -1.1731400000
   14      H      -4.5593100000    -0.7933200000     0.9100200000
   15      C      -1.7367800000     0.3210700000    -0.1669500000
   16      H      -4.6623500000    -1.0113700000    -1.6536100000
   17      O       0.5741500000     1.5432300000    -0.3362700000
   18      H      -1.9848900000     0.6123300000    -2.9643000000
   19      C      -2.5590100000    -0.5867200000    -1.1583900000
   20      C      -2.0088100000    -0.4502700000    -2.6478500000
   21      C      -0.2168300000     0.1447700000    -0.2346000000
   22      H       0.0902200000     0.0051800000     2.0313300000
   23      O       1.5078600000     1.1366800000     0.8286400000
   24      C       0.6530300000    -0.2126900000     1.0888800000
   25      H      -2.7008200000    -0.9976700000    -3.3190100000
   26      C      -2.4030200000    -2.1094600000    -0.6907400000
   27      H      -2.8161600000    -2.2540800000     0.3275400000
   28      H      -1.0007100000    -0.8945000000    -2.7726100000
   29      H       0.0777100000    -0.4756100000    -1.1162800000
   30      H      -2.9678800000    -2.7496800000    -1.3982100000
   31      C       1.4914500000    -1.4778800000     1.2297400000
   32      H      -1.3418800000    -2.4307600000    -0.7002100000
   33      C       1.5935900000    -2.0784500000     2.6541500000
   34      H       1.9894000000    -1.6199900000    -0.8963700000
   35      C       2.1170200000    -2.0706200000     0.1126500000
   36      C       2.9280800000    -3.2888800000     0.1762500000
   37      H       3.0887500000    -3.7636400000     1.1654400000
   38      H       3.3575300000    -3.4308500000    -1.9715800000
   39      C       3.4894000000    -3.8684800000    -0.9581300000
   40      H       4.0912600000    -4.8006800000    -0.8847800000
   41      H       2.2031700000    -2.9574400000     2.6277400000
   42      H       0.6153100000    -2.3332500000     3.0047900000
   43      H       2.0328400000    -1.3594800000     3.3137100000
 ----------------------------------------------------------------
 Nuclear Repulsion Energy =  1777.8139488477 hartrees
 There are       82 alpha and       78 beta electrons
 Requested basis set is STO-3G
 There are 65 shells and 132 basis functions

 Total QAlloc Memory Limit   2000 MB
 Mega-Array Size       188 MB
 MEM_STATIC part       192 MB
 A cutoff of  1.0D-11 yielded   1635 shell pairs
 There are      7442 function pairs (      7539 Cartesian)
 
 -------------------------------------------------------
 OpenMP Integral Computing Module                       
 Release: version 1.0, May 2013, Q-Chem Inc. Pittsburgh 
 -------------------------------------------------------
 Integral Job Info:
 Integral job number is                      11
 Integral operator is                         1
 short-range coefficients                     0
 long-range coefficients              100000000
 Omega coefficients                           0
 if combine SR and LR in K                    0
 Integral screening is                        0
 Integral computing path is                   2
 max size of driver memory is            800000
 size of driver memory is                593474
 size of scratch memory is             10861360
 max col of scratch BK array               1296
 max len of scratch array in speh3          155
 max len of scratch index in speh4           18
 max int batch size is                      520
 min int batch size is                       52
 fixed nKL is                                52
 max L of basis functions is                  2
 order of int derivative is                   0
 number of shells is                         65
 number of basis is                         133
 number of cartesian basis is               133
 number of contracted shell pairs          1635
 number of primitive shell pairs           8492
 maxK2 (contraction) of shell pair            9
 max number of K2 of shell pair               1
 max number of CS2 of shell pair            248
 max number of PS2 of shell pair            840
 mem total for path MDJ                  535970
 -------------------------------------------------------
 Smallest overlap matrix eigenvalue = 2.03E-01
 Guess from superposition of atomic densities
 Warning:  Energy on first SCF cycle will be non-variational
 SAD guess density has 162.000000 electrons

 -----------------------------------------------------------------------
  General SCF calculation program by
  Eric Jon Sundstrom, Paul Horn, Yuezhi Mao, Dmitri Zuev, Alec White,
  David Stuck, Shaama M.S., Shane Yost, Joonho Lee, David Small,
  Daniel Levine, Susi Lehtola, Hugh Burton, Evgeny Epifanovsky
 -----------------------------------------------------------------------
 Exchange:     0.2000 Hartree-Fock + 0.0800 Slater + 0.7200 B88
 Correlation:  0.1900 VWN1RPA + 0.8100 LYP
 Using SG-1 standard quadrature grid
 using 12 threads for integral computing
 -------------------------------------------------------
 OpenMP Integral computing Module                
 Release: version 1.0, May 2013, Q-Chem Inc. Pittsburgh 
 -------------------------------------------------------
 -------------------------------------------------------
 OpenMP BLAS3 based DFT computing Module                
 Release: version 1.0, May 2013, Q-Chem Inc. Pittsburgh 
 -------------------------------------------------------
 A unrestricted SCF calculation will be
 performed using DIIS
 SCF converges when DIIS error is below 1.0e-08
 ---------------------------------------
  Cycle       Energy         DIIS error
 ---------------------------------------
    1   -2011.7580475337      3.81e-02  
    2   -2013.0339230526      1.11e-02  
    3   -1996.0812336650      2.15e-02  
    4   -2000.4274589047      1.85e-02  
    5   -2012.3648569454      1.23e-02  
    6   -2013.0112069717      1.03e-02  
    7   -2013.2828573542      8.58e-03  
    8   -2013.7431938136      5.35e-03  
    9   -2014.2292976764      3.34e-03  
   10   -2014.4064714293      1.46e-03  
   11   -2014.4241218548      1.12e-03  
   12   -2014.4351705168      5.84e-04  
   13   -2014.4410830008      4.45e-04  
   14   -2014.4441917882      2.02e-04  
   15   -2014.4450105010      8.65e-05  
   16   -2014.4452648463      4.53e-05  
   17   -2014.4453432420      2.17e-05  
   18   -2014.4453617262      1.16e-05  
   19   -2014.4453668847      8.11e-06  
   20   -2014.4453700432      5.94e-06  
   21   -2014.4453713894      2.53e-06  
   22   -2014.4453718519      1.38e-06  
   23   -2014.4453719487      9.50e-07  
   24   -2014.4453719906      5.65e-07  
   25   -2014.4453719994      2.56e-07  
   26   -2014.4453720007      1.82e-07  
   27   -2014.4453720014      7.41e-08  
   28   -2014.4453720015      3.21e-08  
   29   -2014.4453720016      1.01e-08  
   30   -2014.4453720016      4.82e-09  Convergence criterion met
 ---------------------------------------
 SCF time:   CPU 229.45s  wall 19.00s 
<S^2> =          7.000404426
 SCF   energy in the final basis set =    -2014.4453720016
 Total energy in the final basis set =    -2014.4453720016
 
 --------------------------------------------------------------
 
                    Orbital Energies (a.u.)
 --------------------------------------------------------------
 
 Alpha MOs
 -- Occupied --
******* -30.213 -26.651 -26.650 -26.648 -19.346 -19.344 -10.423
-10.420 -10.347 -10.343 -10.338 -10.323 -10.315 -10.313 -10.290
-10.286 -10.284 -10.270 -10.241 -10.239 -10.235 -10.233  -4.113
 -2.915  -2.912  -2.909  -1.417  -1.190  -1.095  -1.066  -1.030
 -0.998  -0.991  -0.950  -0.933  -0.922  -0.883  -0.876  -0.872
 -0.838  -0.802  -0.793  -0.780  -0.772  -0.756  -0.746  -0.705
 -0.697  -0.689  -0.685  -0.677  -0.672  -0.671  -0.668  -0.664
 -0.657  -0.654  -0.651  -0.642  -0.638  -0.637  -0.626  -0.623
 -0.620  -0.611  -0.610  -0.604  -0.598  -0.589  -0.579  -0.574
 -0.558  -0.551  -0.546  -0.542  -0.527  -0.507  -0.505  -0.495
 -0.468  -0.443
 -- Virtual --
 -0.413  -0.313  -0.297  -0.270  -0.251  -0.236  -0.181  -0.129
 -0.090  -0.078  -0.035   0.024   0.032   0.036   0.060   0.079
  0.090   0.095   0.105   0.108   0.114   0.125   0.143   0.145
  0.155   0.170   0.176   0.178   0.185   0.190   0.208   0.209
  0.218   0.225   0.230   0.232   0.239   0.240   0.251   0.262
  0.271   0.276   0.282   0.293   0.297   0.304   0.310   0.358
  0.368   0.405
 
 Beta MOs
 -- Occupied --
******* -30.162 -26.606 -26.605 -26.604 -19.346 -19.344 -10.422
-10.420 -10.349 -10.343 -10.340 -10.325 -10.316 -10.315 -10.290
-10.286 -10.284 -10.270 -10.242 -10.239 -10.235 -10.233  -3.839
 -2.617  -2.616  -2.615  -1.418  -1.192  -1.099  -1.072  -1.033
 -1.002  -0.994  -0.952  -0.936  -0.924  -0.885  -0.878  -0.873
 -0.841  -0.803  -0.794  -0.782  -0.773  -0.757  -0.747  -0.704
 -0.697  -0.683  -0.679  -0.672  -0.657  -0.656  -0.653  -0.645
 -0.640  -0.630  -0.627  -0.622  -0.613  -0.612  -0.605  -0.600
 -0.590  -0.580  -0.574  -0.564  -0.559  -0.549  -0.545  -0.533
 -0.509  -0.506  -0.496  -0.480  -0.474  -0.460
 -- Virtual --
 -0.314  -0.303  -0.279  -0.267  -0.262  -0.261  -0.259  -0.256
 -0.249  -0.235  -0.195  -0.139  -0.092  -0.072  -0.039   0.023
  0.030   0.035   0.054   0.076   0.089   0.092   0.103   0.107
  0.112   0.123   0.138   0.144   0.153   0.168   0.174   0.176
  0.184   0.189   0.206   0.208   0.217   0.223   0.229   0.230
  0.238   0.239   0.250   0.261   0.270   0.276   0.279   0.291
  0.296   0.303   0.309   0.355   0.364   0.403
 --------------------------------------------------------------
 
          Ground-State Mulliken Net Atomic Charges

     Atom                 Charge (a.u.)    Spin (a.u.)
  --------------------------------------------------------
      1 Fe                    0.631196       4.845551
      2 H                     0.123946      -0.016721
      3 H                     0.133187      -0.006670
      4 H                     0.118277      -0.005247
      5 C                    -0.133918       0.003816
      6 C                    -0.230506       0.008262
      7 H                     0.111779       0.000132
      8 H                     0.123672      -0.009963
      9 C                    -0.128066      -0.002392
     10 C                     0.090723      -0.160891
     11 H                     0.083713      -0.000451
     12 H                     0.088793      -0.000478
     13 C                    -0.129299      -0.001262
     14 H                     0.086938      -0.000216
     15 C                     0.021833      -0.192299
     16 H                     0.102564       0.000093
     17 O                    -0.066512      -0.027645
     18 H                     0.088843      -0.000180
     19 C                     0.030007       0.001675
     20 C                    -0.214950      -0.013156
     21 C                     0.029386       0.022925
     22 H                     0.148186      -0.000515
     23 O                    -0.076982      -0.027322
     24 C                     0.028456       0.021834
     25 H                     0.112332      -0.000517
     26 C                    -0.212515      -0.024912
     27 H                     0.090131       0.000540
     28 H                     0.066285       0.000601
     29 H                     0.131424      -0.002311
     30 H                     0.110475      -0.001956
     31 C                     0.039362      -0.158419
     32 H                     0.063827       0.000932
     33 C                    -0.246775       0.006646
     34 H                     0.097647       0.001128
     35 C                    -0.029142      -0.020109
     36 C                    -0.038681      -0.016210
     37 H                     0.132662       0.000804
     38 H                     0.132075       0.010295
     39 C                    -0.047419      -0.231892
     40 H                     0.156556       0.010445
     41 H                     0.123277      -0.000331
     42 H                     0.128533      -0.006616
     43 H                     0.128683      -0.006995
  --------------------------------------------------------
  Sum of atomic charges =     2.000000
  Sum of spin   charges =     4.000000

 -----------------------------------------------------------------
                    Cartesian Multipole Moments
 -----------------------------------------------------------------
    Charge (ESU x 10^10)
                 9.6064
    Dipole Moment (Debye)
         X       4.6347      Y      -2.3615      Z       0.8465
       Tot       5.2700
    Quadrupole Moments (Debye-Ang)
        XX     -49.7158     XY     -22.4781     YY     -69.5841
        XZ      -3.8174     YZ       3.4394     ZZ     -96.7121
    Octopole Moments (Debye-Ang^2)
       XXX      57.9256    XXY     -28.3998    XYY     127.3321
       YYY     -16.2241    XXZ     -11.0086    XYZ      -8.2065
       YYZ      -4.3160    XZZ      26.0076    YZZ       5.0415
       ZZZ      18.1825
    Hexadecapole Moments (Debye-Ang^3)
      XXXX   -4067.9970   XXXY      30.2370   XXYY    -721.8393
      XYYY     -50.3744   YYYY   -1849.9506   XXXZ    -138.3566
      XXYZ      80.6995   XYYZ     -91.2922   YYYZ      28.8557
      XXZZ    -915.5373   XYZZ      64.6001   YYZZ    -533.0822
      XZZZ     -76.3154   YZZZ     -27.2193   ZZZZ   -1178.2675
 -----------------------------------------------------------------
 Calculating MO derivatives via CPSCF
 D1JvT checksum  = 1232208 10888.6266094616
 D1KAT checksum  = 3019632 594.3121364829
   1         3         129      0.463025    0.158666
   2         3         129      0.052736    0.018609
   3        19         113      0.006161    0.002163
   4        93          39      0.000653    0.000234
   5       129           3      0.000049    0.000021
   6       130           2      0.000004    0.000002
   7       132           0      0.000000    0.000000    Roots Converged
 Time for AOints: 115.5 s (CPU) 10.0 s (wall)
 ------------------------------------------------------------------------------
                     AOints        : Timing summary (seconds)
 ------------------------------------------------------------------------------
     job step          cpu (% of tot)      sys (% of tot)     wall (% of tot)
 ------------------------------------------------------------------------------
  cpscf_lag         0.9843E+04 (85.9)   0.1516E+00 (98.9)   0.8793E+03 (84.1)
  iterzp            0.1502E+04 (13.1)   0.1674E-02 ( 1.1)   0.1549E+03 (14.8)
  make_fx           0.0000E+00 ( 0.0)   0.0000E+00 ( 0.0)   0.0000E+00 ( 0.0)
  AOints            0.1155E+03 ( 1.0)   0.5900E-04 ( 0.0)   0.9994E+01 ( 1.0)
 ------------------------------------------------------------------------------
   Grand Totals     0.1146E+05          0.1534E+00          0.1045E+04
 ------------------------------------------------------------------------------
 Calculating analytic Hessian of the SCF energy
 Polarizability Matrix (a.u.)
            1           2           3
    1-506.7818041 129.6153120  26.2285940
    2 129.6153120-337.2713739  10.8636110
    3  26.2285940  10.8636110-154.3385367
 
 Direct stationary perturbation theory relativistic correction:
 
 rels  =       4.850750858605
 relv  =     -16.294869595899
 rel2e =       3.777601936632
 E_rel =      -7.666516800662
 
 Hessian of the SCF Energy
            1           2           3           4           5           6
    1   0.0651072   0.0168873  -0.0273250  -0.0000334  -0.0004177   0.0003934
    2   0.0168873   0.0181314  -0.0144280   0.0000517   0.0000197   0.0000447
    3  -0.0273250  -0.0144280   0.0344666  -0.0000342   0.0001634  -0.0001557
    4  -0.0000334   0.0000517  -0.0000342   0.0823170  -0.0699239   0.0412247
    5  -0.0004177   0.0000197   0.0001634  -0.0699239   0.2735086  -0.1228095
    6   0.0003934   0.0000447  -0.0001557   0.0412247  -0.1228095   0.1246986
    7   0.0006113   0.0002243  -0.0003909  -0.0004865  -0.0010294  -0.0002746
    8   0.0000205   0.0000859  -0.0000421  -0.0003478   0.0003780  -0.0001219
    9   0.0000144  -0.0000366   0.0000486  -0.0005195  -0.0002464  -0.0000205
   10  -0.0000071   0.0000251   0.0000368   0.0041495  -0.0005707  -0.0114122
   11  -0.0003313   0.0000001   0.0001431  -0.0079445   0.0032612   0.0313018
   12  -0.0000783   0.0000336   0.0000279   0.0054375  -0.0067234  -0.0149985
   13  -0.0008178  -0.0001321   0.0003747  -0.0705092   0.0592105  -0.0340902
   14   0.0012043  -0.0000672  -0.0004490   0.0716548  -0.2509811   0.1121017
   15  -0.0005375  -0.0001618   0.0001087  -0.0406146   0.1182497  -0.1161913
   16  -0.0003961   0.0001313   0.0002082   0.0000587  -0.0005339   0.0000963
   17   0.0005695  -0.0000948  -0.0003158  -0.0009611  -0.0017134  -0.0006440
   18   0.0006724   0.0000239  -0.0006230   0.0021511  -0.0007679   0.0004274
   19   0.0000055   0.0000035  -0.0000076   0.0011582   0.0010190   0.0003907
   20  -0.0000457   0.0000009   0.0000141  -0.0001137   0.0019854   0.0005425
   21  -0.0000280  -0.0000123  -0.0000011   0.0005196   0.0004321   0.0006864
   22   0.0001895  -0.0000913   0.0000162   0.0004843  -0.0005040  -0.0001657
   23   0.0002282   0.0000498  -0.0001263   0.0004190   0.0002288   0.0000714
   24  -0.0003481  -0.0000236   0.0001717   0.0003792   0.0004311   0.0001837
   25   0.0002386   0.0000646  -0.0000966   0.0036996   0.0052222   0.0027086
   26   0.0003106   0.0000408  -0.0001561  -0.0181521  -0.0230166  -0.0154790
   27   0.0004705   0.0000894  -0.0002203   0.0087338   0.0131872   0.0061482
   28   0.0056867   0.0010032  -0.0025672  -0.0166996   0.0105087   0.0008984
   29  -0.0081669  -0.0013221   0.0038336   0.0294578  -0.0055550  -0.0027321
   30  -0.0057676  -0.0006840   0.0028567  -0.0168981  -0.0021748   0.0013865
   31  -0.0008795  -0.0002225   0.0007628   0.0001330   0.0000816   0.0000603
   32   0.0005404   0.0005479  -0.0002989  -0.0005727  -0.0002149  -0.0001417
   33   0.0010372   0.0002517  -0.0002733   0.0002616   0.0000795  -0.0000251
   34  -0.0000987  -0.0000030   0.0000419   0.0002354   0.0001842  -0.0001907
   35  -0.0000218  -0.0000005   0.0000197  -0.0000203   0.0000711   0.0000827
   36   0.0000691  -0.0000049  -0.0000290  -0.0001933  -0.0003170   0.0000107
   37   0.0005926   0.0001016  -0.0003312  -0.0004008   0.0001961   0.0004365
   38   0.0002263   0.0000974  -0.0001280   0.0007285   0.0015156  -0.0002905
   39  -0.0002223  -0.0000216   0.0000962   0.0006845   0.0013712   0.0007067
   40   0.0000192  -0.0000122  -0.0000064  -0.0012738  -0.0021096  -0.0014198
   41  -0.0000159  -0.0000049   0.0000055  -0.0029659  -0.0020580  -0.0018790
   42  -0.0001032  -0.0000018   0.0000380  -0.0024668  -0.0031898  -0.0007017
   43   0.0040588   0.0012511  -0.0024298  -0.0029132  -0.0015705   0.0014798
   44   0.0071804   0.0011753  -0.0032710  -0.0004076   0.0027082   0.0003902
   45   0.0069940   0.0011745  -0.0037781   0.0007662   0.0028173  -0.0024383
   46   0.0000252   0.0000243  -0.0000168   0.0000384  -0.0000566  -0.0000777
   47   0.0000078  -0.0000068  -0.0000166  -0.0000956   0.0000586   0.0000906
   48  -0.0000153  -0.0000034  -0.0000000  -0.0000227   0.0000892   0.0000579
   49  -0.0314446  -0.0056377   0.0064339   0.0000344   0.0007384  -0.0005422
   50   0.0028963  -0.0020657  -0.0103261   0.0000770   0.0003058  -0.0003943
   51   0.0038781  -0.0029690  -0.0028779   0.0000848  -0.0001156   0.0000864
   52  -0.0000600  -0.0000096  -0.0000752  -0.0000008  -0.0000024   0.0000335
   53  -0.0000516   0.0000178   0.0000298   0.0000039   0.0000186   0.0000077
   54  -0.0001754  -0.0000379   0.0000357   0.0000123  -0.0000061  -0.0000397
   55   0.0013748   0.0003244  -0.0006204   0.0000953   0.0001022  -0.0000827
   56  -0.0028159  -0.0003443   0.0011253  -0.0004937  -0.0006782  -0.0004645
   57  -0.0023474  -0.0007118   0.0013896  -0.0005516   0.0003053   0.0003578
   58  -0.0014187  -0.0002580   0.0006451   0.0002124   0.0001595  -0.0000014
   59  -0.0000373   0.0000099   0.0000508   0.0001320   0.0000105   0.0000427
   60   0.0009158   0.0001501  -0.0002867   0.0001975   0.0000189  -0.0002204
   61  -0.0264007  -0.0076076   0.0070769   0.0001291  -0.0008556   0.0007535
   62  -0.0168851  -0.0041339   0.0076075  -0.0009589  -0.0000853   0.0005047
   63   0.0063338   0.0023821  -0.0036659   0.0013128  -0.0003362  -0.0002379
   64   0.0000731   0.0000410  -0.0001862  -0.0000281  -0.0000161   0.0000192
   65   0.0014637   0.0005176  -0.0012988  -0.0000080  -0.0000785   0.0000413
   66  -0.0000908  -0.0000519  -0.0002907   0.0000034   0.0000579  -0.0000333
   67  -0.0071172  -0.0021935   0.0108667  -0.0001841   0.0000837  -0.0001705
   68   0.0057629  -0.0083866   0.0072342  -0.0001306  -0.0003675   0.0001591
   69   0.0185494   0.0116601  -0.0228993  -0.0001304   0.0000053  -0.0000060
   70  -0.0076412  -0.0038062   0.0064184  -0.0001245  -0.0003087   0.0002451
   71  -0.0168788  -0.0054930   0.0177265   0.0004634   0.0013560  -0.0008288
   72   0.0009032   0.0038197  -0.0053015  -0.0000652  -0.0001443   0.0001886
   73   0.0004814   0.0001189  -0.0001696  -0.0000274   0.0000094  -0.0000099
   74   0.0001655   0.0000143  -0.0000505  -0.0000301  -0.0000021  -0.0000022
   75  -0.0003050  -0.0000613   0.0000993   0.0000426   0.0000127  -0.0000030
   76  -0.0010782  -0.0001518   0.0004254  -0.0001503  -0.0002382   0.0000512
   77   0.0015211   0.0002457  -0.0007202   0.0001637  -0.0000293   0.0000717
   78  -0.0011180  -0.0001189   0.0003872  -0.0000562  -0.0002937   0.0000053
   79   0.0001079   0.0000071  -0.0000352  -0.0000422  -0.0000744   0.0000242
   80  -0.0000856  -0.0000288   0.0000688  -0.0000166   0.0001430  -0.0000421
   81  -0.0000439  -0.0000004   0.0000077  -0.0000317  -0.0000374  -0.0000256
   82   0.0001762   0.0000675  -0.0000492   0.0000177   0.0000442  -0.0000394
   83  -0.0001936  -0.0000805   0.0000013  -0.0000127  -0.0000061   0.0000215
   84  -0.0001162  -0.0000467   0.0000314  -0.0000737  -0.0000499   0.0000707
   85   0.0007412  -0.0005270  -0.0008926  -0.0001034   0.0000862   0.0000064
   86   0.0008798  -0.0001403  -0.0004037   0.0002298  -0.0000222  -0.0001014
   87  -0.0013493  -0.0000930   0.0007895  -0.0002008  -0.0000885   0.0001285
   88   0.0001933   0.0000285  -0.0000829   0.0000234   0.0000357  -0.0000389
   89  -0.0003653  -0.0000555   0.0001300   0.0000073  -0.0000497  -0.0000048
   90   0.0003922   0.0000576  -0.0001672   0.0000891   0.0000465  -0.0000171
   91  -0.0022071   0.0007838   0.0011750  -0.0000179  -0.0002590   0.0000872
   92   0.0057707   0.0013773  -0.0052487  -0.0000061   0.0001352  -0.0000354
   93  -0.0005626  -0.0005710   0.0010719   0.0004726   0.0017352  -0.0009473
   94   0.0000936   0.0000359  -0.0000333   0.0000272   0.0000578  -0.0000051
   95  -0.0000542  -0.0000394   0.0000131   0.0000180   0.0000018   0.0000371
   96   0.0000496  -0.0000011  -0.0000071  -0.0000284  -0.0000444   0.0000033
   97  -0.0003749  -0.0003590   0.0003692   0.0000424   0.0001902  -0.0001136
   98   0.0011206   0.0003726  -0.0011732  -0.0000991  -0.0003159   0.0001759
   99   0.0012036   0.0004993  -0.0013885  -0.0001020  -0.0003457   0.0001930
  100   0.0001848  -0.0002560  -0.0002086   0.0000002  -0.0000524   0.0000252
  101  -0.0000041  -0.0002015  -0.0002464  -0.0000006  -0.0000151   0.0000067
  102  -0.0006653  -0.0011854   0.0005098  -0.0000092  -0.0000574   0.0000269
  103  -0.0005501  -0.0005870   0.0011666   0.0003189   0.0012041  -0.0006331
  104  -0.0000492   0.0003394  -0.0006484  -0.0003699  -0.0012892   0.0006849
  105  -0.0003185   0.0015982  -0.0004462  -0.0004458  -0.0015008   0.0008243
  106   0.0012641   0.0017287  -0.0019528  -0.0003736  -0.0013165   0.0006961
  107  -0.0014973  -0.0018710   0.0024320   0.0004483   0.0015682  -0.0008296
  108  -0.0017799  -0.0023481   0.0026510   0.0005175   0.0017838  -0.0009532
  109  -0.0000337  -0.0000086   0.0001571   0.0000037   0.0000594  -0.0000242
  110   0.0003129   0.0003597  -0.0002359  -0.0000405  -0.0001091   0.0000636
  111  -0.0001594  -0.0001065   0.0003188   0.0000464   0.0001685  -0.0000875
  112   0.0000819   0.0001152  -0.0000196  -0.0000088  -0.0000196   0.0000139
  113  -0.0000041  -0.0000360   0.0000690   0.0000245   0.0000859  -0.0000452
  114  -0.0000801  -0.0000389  -0.0000196  -0.0000641  -0.0002292   0.0001236
  115  -0.0012180  -0.0012448   0.0016333   0.0002245   0.0007279  -0.0003940
  116   0.0014292   0.0012516  -0.0018450  -0.0002029  -0.0007238   0.0003819
  117   0.0018362   0.0019957  -0.0027895  -0.0004582  -0.0015904   0.0008455
  118   0.0000051  -0.0000730   0.0000876   0.0000353   0.0001365  -0.0000704
  119  -0.0000459  -0.0000130  -0.0001008  -0.0000704  -0.0002514   0.0001344
  120   0.0000400   0.0000159  -0.0000120   0.0000100   0.0000346  -0.0000180
  121   0.0000473   0.0000122   0.0000294   0.0000006   0.0000062  -0.0000025
  122   0.0001135   0.0000046  -0.0000667  -0.0000179  -0.0000556   0.0000307
  123  -0.0002374  -0.0001509   0.0002061   0.0000087   0.0000472  -0.0000268
  124   0.0002245   0.0000986  -0.0003499  -0.0000529  -0.0001867   0.0001015
  125  -0.0002182  -0.0001387   0.0002686   0.0000134   0.0000510  -0.0000297
  126  -0.0000798   0.0000004   0.0000533   0.0000064   0.0000118  -0.0000033
  127   0.0001932   0.0000511  -0.0000440  -0.0000084  -0.0000178   0.0000130
  128  -0.0004260  -0.0001350   0.0006604   0.0000703   0.0002070  -0.0001138
  129   0.0001016   0.0000742  -0.0001328   0.0000039   0.0000197  -0.0000095
            7           8           9          10          11          12
    1   0.0006113   0.0000205   0.0000144  -0.0000071  -0.0003313  -0.0000783
    2   0.0002243   0.0000859  -0.0000366   0.0000251   0.0000001   0.0000336
    3  -0.0003909  -0.0000421   0.0000486   0.0000368   0.0001431   0.0000279
    4  -0.0004865  -0.0003478  -0.0005195   0.0041495  -0.0079445   0.0054375
    5  -0.0010294   0.0003780  -0.0002464  -0.0005707   0.0032612  -0.0067234
    6  -0.0002746  -0.0001219  -0.0000205  -0.0114122   0.0313018  -0.0149985
    7   0.1231569  -0.1291525   0.0085851   0.0002030  -0.0001857   0.0002703
    8  -0.1291525   0.3291477  -0.0131633  -0.0000208  -0.0000540   0.0000363
    9   0.0085851  -0.0131633   0.0581198   0.0001923   0.0002712   0.0001031
   10   0.0002030  -0.0000208   0.0001923   0.0808660  -0.0087043  -0.0729739
   11  -0.0001857  -0.0000540   0.0002712  -0.0087043   0.0627489   0.0419467
   12   0.0002703   0.0000363   0.0001031  -0.0729739   0.0419467   0.3601997
   13  -0.0008144   0.0016697   0.0009239  -0.0732013   0.0032536   0.0686009
   14   0.0007042   0.0023002   0.0011733   0.0049830  -0.0595785  -0.0368195
   15  -0.0009876   0.0003512   0.0005054   0.0690555  -0.0425151  -0.3422295
   16  -0.1240691   0.1240710  -0.0034723   0.0012724  -0.0009407  -0.0015561
   17   0.1192267  -0.3117142   0.0136683   0.0010358  -0.0001802  -0.0005903
   18  -0.0068569   0.0176248  -0.0520877  -0.0007447  -0.0003865   0.0001399
   19  -0.0000126  -0.0000057  -0.0000116   0.0005936   0.0004859   0.0000622
   20   0.0000740   0.0001415   0.0000883   0.0002740   0.0005351   0.0002507
   21   0.0000576   0.0000815   0.0000677   0.0000747   0.0004262   0.0003254
   22   0.0016964   0.0059109  -0.0161766  -0.0008331  -0.0003970  -0.0007268
   23  -0.0052022  -0.0079739   0.0336435  -0.0002290   0.0002169  -0.0000344
   24   0.0026479  -0.0032096   0.0001918  -0.0001820   0.0003071   0.0006652
   25   0.0001963   0.0002358   0.0001986   0.0060506   0.0081787   0.0024283
   26  -0.0001882  -0.0001429  -0.0001664  -0.0001340  -0.0024480   0.0009048
   27   0.0001120  -0.0003802  -0.0003860  -0.0174475  -0.0251821  -0.0070345
   28   0.0091143   0.0065124   0.0091750  -0.0125707   0.0095029   0.0019643
   29  -0.0146855  -0.0208412  -0.0258116   0.0051754  -0.0042125  -0.0007913
   30   0.0050530  -0.0030672  -0.0041658   0.0357786  -0.0055122   0.0003537
   31  -0.0085605  -0.0067553   0.0038091   0.0003044   0.0000160  -0.0001869
   32   0.0324804   0.0081812  -0.0087973   0.0003543  -0.0002092  -0.0001842
   33  -0.0041743   0.0006980  -0.0002151   0.0000095   0.0000828   0.0000568
   34  -0.0000252  -0.0000229  -0.0000282   0.0000345   0.0000757  -0.0000080
   35   0.0000028   0.0000062  -0.0000038  -0.0000642   0.0000170  -0.0000149
   36  -0.0000076   0.0000121   0.0000080   0.0001534   0.0001867   0.0003888
   37   0.0001593   0.0001048   0.0001113  -0.0027093  -0.0038830  -0.0011707
   38   0.0000825   0.0000405  -0.0000089  -0.0036063  -0.0039640  -0.0010154
   39   0.0000287  -0.0000237   0.0000339  -0.0007163  -0.0010441   0.0006890
   40  -0.0000155   0.0000618   0.0000216   0.0004878   0.0007681   0.0002139
   41   0.0000063   0.0000532   0.0000409   0.0004684   0.0013384   0.0005871
   42  -0.0000190   0.0000848   0.0000340   0.0002685  -0.0000274   0.0010004
   43  -0.0007482  -0.0021704  -0.0033803  -0.0050019  -0.0009587  -0.0021841
   44  -0.0022771   0.0000284  -0.0005131  -0.0005088   0.0024375   0.0022987
   45  -0.0044022   0.0012833  -0.0015319  -0.0010733   0.0015214   0.0000938
   46  -0.0000337  -0.0000421  -0.0000219   0.0007150   0.0009110   0.0003624
   47   0.0000049  -0.0000030  -0.0000051  -0.0000913  -0.0000577  -0.0001817
   48   0.0000496   0.0000396   0.0000026  -0.0010207  -0.0012814  -0.0002770
   49  -0.0006516  -0.0000733   0.0000617   0.0000885   0.0004139   0.0001616
   50  -0.0002002   0.0000126   0.0000155  -0.0001248   0.0001091  -0.0000257
   51   0.0003304   0.0001633   0.0000283  -0.0001489  -0.0001221  -0.0000804
   52   0.0000073   0.0000029   0.0000078  -0.0000144  -0.0000219  -0.0000309
   53  -0.0000033  -0.0000048  -0.0000146  -0.0000048   0.0000012   0.0000097
   54   0.0000124   0.0000111   0.0000015  -0.0000097   0.0000213   0.0000276
   55   0.0004131   0.0005037   0.0007468  -0.0004986  -0.0009591  -0.0006730
   56   0.0004070   0.0003373   0.0001836   0.0000235   0.0003615   0.0000285
   57  -0.0001171  -0.0004685  -0.0005374  -0.0004844   0.0003552   0.0004412
   58   0.0000520  -0.0002140  -0.0001872   0.0001356   0.0002381   0.0001499
   59  -0.0000996  -0.0001651  -0.0002273  -0.0000483  -0.0001106  -0.0000204
   60  -0.0002953  -0.0000458  -0.0001792   0.0001274  -0.0001531  -0.0001827
   61   0.0001742  -0.0002208  -0.0002199   0.0000971  -0.0001574  -0.0002830
   62   0.0001021  -0.0000040  -0.0002060   0.0019318  -0.0003467   0.0004362
   63  -0.0001399   0.0000530   0.0002219   0.0002286  -0.0000515   0.0002280
   64   0.0000133   0.0000442   0.0000981  -0.0000895   0.0000087  -0.0000105
   65  -0.0001334  -0.0001065  -0.0000999   0.0000194  -0.0000146  -0.0000406
   66   0.0001501  -0.0000038  -0.0000012   0.0000070   0.0000305   0.0000425
   67  -0.0003720  -0.0001209   0.0000052   0.0001462   0.0001224   0.0000477
   68   0.0002272  -0.0000727  -0.0000048  -0.0000320  -0.0002155  -0.0001418
   69   0.0001410   0.0000858  -0.0000922   0.0000577   0.0000676   0.0000719
   70   0.0005560  -0.0001468   0.0000024  -0.0002467  -0.0002601  -0.0001016
   71  -0.0009164   0.0004792   0.0001701   0.0001574   0.0008970   0.0004756
   72   0.0000838   0.0000990  -0.0000164   0.0001023  -0.0002662  -0.0000657
   73  -0.0000196   0.0000555   0.0000469  -0.0000110   0.0000075  -0.0000035
   74  -0.0000318   0.0000117   0.0000080   0.0000250   0.0000280   0.0000115
   75  -0.0000263  -0.0000636  -0.0000848   0.0000565   0.0000511   0.0000368
   76   0.0000220  -0.0000539  -0.0000798   0.0002697   0.0001752   0.0001359
   77  -0.0000333   0.0001002   0.0001306  -0.0000611  -0.0000151  -0.0000307
   78  -0.0000401  -0.0000033  -0.0001502   0.0002212  -0.0001413  -0.0000881
   79   0.0000029   0.0000160   0.0000097  -0.0000181  -0.0000393  -0.0000151
   80   0.0000038  -0.0000090   0.0000064   0.0000442   0.0000707   0.0000486
   81   0.0000042   0.0000090  -0.0000002  -0.0000166  -0.0000294  -0.0000036
   82  -0.0000168  -0.0000074   0.0000016   0.0000710   0.0001024   0.0000631
   83   0.0000053   0.0000045   0.0000091  -0.0000032  -0.0000021  -0.0000178
   84   0.0000135  -0.0000018  -0.0000077  -0.0000707  -0.0000432   0.0000027
   85  -0.0000232   0.0000348   0.0000568  -0.0004033   0.0001161  -0.0001134
   86  -0.0000239  -0.0000099  -0.0000214  -0.0001895  -0.0000183  -0.0000769
   87   0.0001083  -0.0000451   0.0000037   0.0000036  -0.0000535   0.0000051
   88   0.0000126   0.0000109   0.0000300  -0.0000318  -0.0000077  -0.0000035
   89   0.0000100  -0.0000105  -0.0000323   0.0000905   0.0000307   0.0000146
   90   0.0000046   0.0000055   0.0000424  -0.0000493   0.0000181  -0.0000036
   91  -0.0000659  -0.0000976  -0.0000661   0.0000019  -0.0001699  -0.0001164
   92   0.0001381   0.0000799   0.0000730  -0.0001018   0.0000383   0.0000157
   93  -0.0008292   0.0005163   0.0002696   0.0001771   0.0011786   0.0007309
   94  -0.0000123  -0.0000078  -0.0000034   0.0000455   0.0000557   0.0000307
   95   0.0000028   0.0000043  -0.0000058  -0.0000612  -0.0001012  -0.0000639
   96   0.0000019  -0.0000006   0.0000017   0.0000020   0.0000091   0.0000092
   97  -0.0001830   0.0000567   0.0000149   0.0000687   0.0001591   0.0001034
   98   0.0001781  -0.0000993  -0.0000377  -0.0000100  -0.0001997  -0.0001108
   99   0.0002339  -0.0001030  -0.0000357  -0.0000486  -0.0002364  -0.0001451
  100   0.0000284  -0.0000171  -0.0000101  -0.0000006  -0.0000419  -0.0000214
  101   0.0000088  -0.0000052  -0.0000039  -0.0000115  -0.0000079  -0.0000097
  102   0.0000202  -0.0000174  -0.0000115  -0.0000138  -0.0000391  -0.0000297
  103  -0.0006483   0.0003258   0.0001310   0.0001282   0.0008025   0.0004825
  104   0.0007041  -0.0004337  -0.0001762  -0.0001352  -0.0008729  -0.0005298
  105   0.0007770  -0.0004660  -0.0002008  -0.0001642  -0.0010032  -0.0006146
  106   0.0007185  -0.0003799  -0.0001571  -0.0001792  -0.0009016  -0.0005580
  107  -0.0008449   0.0004839   0.0002049   0.0002015   0.0010693   0.0006629
  108  -0.0009571   0.0005309   0.0002259   0.0002429   0.0012268   0.0007601
  109  -0.0000329   0.0000190   0.0000070   0.0000127   0.0000472   0.0000297
  110   0.0000608  -0.0000306  -0.0000131  -0.0000104  -0.0000729  -0.0000430
  111  -0.0000963   0.0000495   0.0000218   0.0000273   0.0001152   0.0000748
  112   0.0000119  -0.0000018  -0.0000007  -0.0000036  -0.0000140  -0.0000074
  113  -0.0000443   0.0000283   0.0000111   0.0000114   0.0000603   0.0000369
  114   0.0001161  -0.0000672  -0.0000293  -0.0000305  -0.0001585  -0.0000980
  115  -0.0004175   0.0002240   0.0000912   0.0001004   0.0004994   0.0003075
  116   0.0004242  -0.0002083  -0.0000817  -0.0001151  -0.0005041  -0.0003136
  117   0.0008799  -0.0004704  -0.0001962  -0.0002301  -0.0010957  -0.0006824
  118  -0.0000720   0.0000340   0.0000136   0.0000197   0.0000948   0.0000592
  119   0.0001292  -0.0000784  -0.0000360  -0.0000313  -0.0001724  -0.0001073
  120  -0.0000158   0.0000090   0.0000045   0.0000051   0.0000235   0.0000154
  121  -0.0000099   0.0000026  -0.0000029   0.0000081   0.0000060   0.0000055
  122   0.0000309  -0.0000190  -0.0000085  -0.0000020  -0.0000353  -0.0000202
  123  -0.0000332   0.0000145   0.0000059   0.0000011   0.0000393   0.0000190
  124   0.0001143  -0.0000502  -0.0000191  -0.0000438  -0.0001148  -0.0000862
  125  -0.0000586   0.0000180  -0.0000020   0.0000242   0.0000382   0.0000270
  126   0.0000019   0.0000022   0.0000036  -0.0000068  -0.0000015   0.0000062
  127   0.0000264  -0.0000079   0.0000008  -0.0000059  -0.0000082  -0.0000078
  128  -0.0001280   0.0000633   0.0000257   0.0000268   0.0001341   0.0000821
  129  -0.0000200   0.0000037   0.0000043   0.0000152   0.0000204   0.0000183
           13          14          15          16          17          18
    1  -0.0008178   0.0012043  -0.0005375  -0.0003961   0.0005695   0.0006724
    2  -0.0001321  -0.0000672  -0.0001618   0.0001313  -0.0000948   0.0000239
    3   0.0003747  -0.0004490   0.0001087   0.0002082  -0.0003158  -0.0006230
    4  -0.0705092   0.0716548  -0.0406146   0.0000587  -0.0009611   0.0021511
    5   0.0592105  -0.2509811   0.1182497  -0.0005339  -0.0017134  -0.0007679
    6  -0.0340902   0.1121017  -0.1161913   0.0000963  -0.0006440   0.0004274
    7  -0.0008144   0.0007042  -0.0009876  -0.1240691   0.1192267  -0.0068569
    8   0.0016697   0.0023002   0.0003512   0.1240710  -0.3117142   0.0176248
    9   0.0009239   0.0011733   0.0005054  -0.0034723   0.0136683  -0.0520877
   10  -0.0732013   0.0049830   0.0690555   0.0012724   0.0010358  -0.0007447
   11   0.0032536  -0.0595785  -0.0425151  -0.0009407  -0.0001802  -0.0003865
   12   0.0686009  -0.0368195  -0.3422295  -0.0015561  -0.0005903   0.0001399
   13   0.5034629   0.0000386  -0.0160555  -0.0180386  -0.0044694  -0.0064930
   14   0.0000386   0.5749387   0.0066243  -0.0214193   0.0067535  -0.0014441
   15  -0.0160555   0.0066243   0.6620806  -0.0212331   0.0011595   0.0035674
   16  -0.0180386  -0.0214193  -0.0212331   0.7103812  -0.0286819  -0.0522764
   17  -0.0044694   0.0067535   0.0011595  -0.0286819   0.5938651  -0.0433009
   18  -0.0064930  -0.0014441   0.0035674  -0.0522764  -0.0433009   0.5819128
   19  -0.0129043   0.0034508  -0.0000422  -0.0003135   0.0000138   0.0002338
   20  -0.0308055   0.0043604  -0.0014147  -0.0014723   0.0005018   0.0002784
   21  -0.0142294   0.0036213  -0.0009386  -0.0007970   0.0002192   0.0001588
   22  -0.0010722  -0.0005603   0.0008455  -0.0653133  -0.0128900   0.0276068
   23   0.0002711  -0.0008686   0.0003262  -0.0123710  -0.0820789   0.0897718
   24   0.0015960  -0.0012422   0.0007349   0.0351552   0.0997052  -0.3255838
   25  -0.1175066  -0.0524291  -0.0200910  -0.0043687   0.0010867   0.0025493
   26  -0.0498593  -0.1733889  -0.0386842   0.0032875  -0.0008600   0.0002808
   27  -0.0174855  -0.0399401  -0.1108482   0.0012091  -0.0016309   0.0028622
   28  -0.2077242  -0.0094980   0.0132903  -0.1349976  -0.0397650  -0.0356069
   29   0.0013687  -0.0744372  -0.0115405  -0.0493386  -0.1339210  -0.0455649
   30   0.0070187  -0.0029164  -0.0895955  -0.0473464  -0.0570530  -0.1217710
   31   0.0006287  -0.0020357  -0.0007515  -0.3721287  -0.0277693   0.0710798
   32  -0.0002088  -0.0005453  -0.0030681  -0.0265942  -0.0669271   0.0068492
   33  -0.0004855  -0.0046255  -0.0020513   0.0730397   0.0082454  -0.0759492
   34   0.0001808  -0.0003831  -0.0004069   0.0002120  -0.0000809  -0.0000012
   35   0.0003601   0.0006786  -0.0007851  -0.0000250   0.0000057   0.0000131
   36  -0.0001701   0.0008090   0.0017326  -0.0000287   0.0001226  -0.0000937
   37   0.0084558  -0.0006142  -0.0199200  -0.0008338   0.0004525   0.0001608
   38   0.0086175  -0.0086924  -0.0331672   0.0002524   0.0004042  -0.0001725
   39   0.0010811  -0.0118456  -0.0208317   0.0007308   0.0001561  -0.0001226
   40   0.0005371  -0.0171600   0.0111299   0.0000379   0.0001607  -0.0003468
   41   0.0034270  -0.0201593   0.0141070   0.0000241   0.0001006  -0.0002877
   42   0.0001130  -0.0162731   0.0094851  -0.0001591   0.0001723  -0.0003456
   43  -0.0120682   0.0237151   0.0215526   0.0095520  -0.0116039  -0.0047506
   44   0.0081332  -0.0025476  -0.0071727   0.0111745  -0.0042987  -0.0224059
   45   0.0092278  -0.0085250   0.0094367   0.0137072  -0.0191224  -0.0125596
   46  -0.0011111   0.0000266   0.0041092   0.0002682  -0.0000379  -0.0000350
   47   0.0005192   0.0017194  -0.0002538  -0.0001392  -0.0001344   0.0001637
   48   0.0031420   0.0003354  -0.0053624  -0.0002198   0.0000617   0.0000612
   49   0.0008475  -0.0021160   0.0003916  -0.0001997   0.0000912   0.0027934
   50   0.0004023  -0.0009562   0.0010557   0.0005495  -0.0006122  -0.0021714
   51  -0.0002912   0.0002562   0.0004230   0.0003780  -0.0006566  -0.0033933
   52  -0.0000167   0.0000281   0.0000765  -0.0000257   0.0000040  -0.0000082
   53   0.0000029   0.0000182  -0.0000782   0.0000001  -0.0000440   0.0000386
   54   0.0001173  -0.0001309   0.0000124  -0.0000293   0.0000316  -0.0000372
   55   0.0000213  -0.0022564  -0.0003319  -0.0024268   0.0024385   0.0006456
   56   0.0009847  -0.0003426   0.0040753   0.0004008   0.0026138  -0.0004723
   57  -0.0009935   0.0019082  -0.0010232   0.0011136  -0.0007934   0.0030880
   58  -0.0005987  -0.0010746  -0.0002284   0.0006371  -0.0002643   0.0002971
   59  -0.0005024   0.0005913  -0.0000768   0.0005376  -0.0005365   0.0001684
   60  -0.0004131  -0.0000805   0.0008298   0.0005022  -0.0011758   0.0005228
   61   0.0008748   0.0033905  -0.0003135   0.0006544   0.0006961   0.0008750
   62  -0.0021595   0.0023449  -0.0084199   0.0004690  -0.0003383   0.0034273
   63  -0.0007136  -0.0050956   0.0012980   0.0003901   0.0031175  -0.0011267
   64   0.0000688   0.0001621   0.0001359  -0.0001519   0.0002580   0.0002223
   65  -0.0001126   0.0000715  -0.0001195   0.0001495  -0.0001072  -0.0003142
   66   0.0000793  -0.0000863   0.0000375   0.0001506  -0.0008029  -0.0000176
   67   0.0005134   0.0001944  -0.0001856  -0.0000006  -0.0005595  -0.0007445
   68  -0.0002376   0.0012002   0.0000240  -0.0005275  -0.0002580   0.0008504
   69   0.0001763   0.0003282  -0.0003039   0.0004211  -0.0007522   0.0004906
   70  -0.0001035   0.0002878  -0.0000717  -0.0005244   0.0008826   0.0000814
   71   0.0013060  -0.0041949   0.0009022   0.0017673  -0.0014496  -0.0020030
   72  -0.0006486   0.0003758  -0.0008576  -0.0003238   0.0010305  -0.0000354
   73   0.0001847   0.0000217  -0.0000084  -0.0001033   0.0000382  -0.0000326
   74   0.0000238   0.0000527  -0.0000148  -0.0000195  -0.0000549   0.0000669
   75  -0.0002266  -0.0000140   0.0000151   0.0002235  -0.0001949   0.0001606
   76  -0.0003129   0.0009933  -0.0003390   0.0001974   0.0000125   0.0002326
   77  -0.0003888   0.0002783  -0.0002579   0.0000900   0.0010048  -0.0014310
   78  -0.0003673   0.0010625   0.0002520   0.0003135  -0.0005043   0.0004090
   79   0.0000082   0.0001575   0.0000142  -0.0000720   0.0000378  -0.0000497
   80   0.0001502  -0.0003747  -0.0001160   0.0000596   0.0000230  -0.0000133
   81   0.0000486  -0.0000329   0.0000771  -0.0000365  -0.0000045   0.0000243
   82  -0.0000308  -0.0002403  -0.0000415   0.0000702   0.0000129  -0.0000265
   83  -0.0000056   0.0000185   0.0000469  -0.0000231   0.0000002  -0.0000013
   84   0.0000400   0.0004252  -0.0001651  -0.0000881   0.0000317   0.0000128
   85   0.0004772   0.0005308   0.0011748   0.0000135  -0.0003283  -0.0005706
   86  -0.0000253  -0.0004674   0.0010072  -0.0000801  -0.0000788   0.0000230
   87  -0.0000839   0.0007970  -0.0004236  -0.0001469   0.0000632   0.0002100
   88   0.0000714  -0.0001858   0.0000350  -0.0000253   0.0001889  -0.0001835
   89  -0.0001671   0.0001362   0.0001562   0.0001258   0.0000292   0.0000041
   90   0.0000114  -0.0002288   0.0000973  -0.0000433   0.0001928  -0.0002063
   91  -0.0002593   0.0006028   0.0000632  -0.0001121   0.0002560   0.0002993
   92   0.0001695  -0.0004713   0.0001603  -0.0000205   0.0001546  -0.0004282
   93   0.0018325  -0.0050683   0.0009473   0.0017958  -0.0008050  -0.0029658
   94  -0.0000038  -0.0000980   0.0000144   0.0000612  -0.0000294   0.0000069
   95   0.0000207   0.0000381   0.0001172  -0.0000414  -0.0001021   0.0000296
   96  -0.0000068   0.0000748   0.0000197  -0.0000310   0.0000205  -0.0000039
   97   0.0002154  -0.0004956   0.0000161   0.0002692  -0.0001760  -0.0003926
   98  -0.0003421   0.0010008  -0.0002541  -0.0002684  -0.0000664   0.0006147
   99  -0.0003545   0.0010269  -0.0001863  -0.0003413   0.0000199   0.0006193
  100  -0.0000771   0.0001243  -0.0000182  -0.0000466   0.0000246   0.0001070
  101  -0.0000052   0.0000386   0.0000244  -0.0000119   0.0000083   0.0000335
  102  -0.0000550   0.0001545   0.0000120  -0.0000508   0.0000268   0.0000882
  103   0.0012176  -0.0034856   0.0005561   0.0010052   0.0001468  -0.0019248
  104  -0.0012450   0.0038407  -0.0006078  -0.0013830   0.0002859   0.0023642
  105  -0.0014654   0.0044431  -0.0007888  -0.0015161   0.0004440   0.0025572
  106  -0.0012675   0.0038160  -0.0005653  -0.0012873   0.0001652   0.0021229
  107   0.0015022  -0.0045810   0.0006875   0.0016009  -0.0003486  -0.0026391
  108   0.0017018  -0.0051714   0.0007981   0.0018012  -0.0004353  -0.0028663
  109   0.0000645  -0.0001436  -0.0000161   0.0000617  -0.0000156  -0.0000956
  110  -0.0001011   0.0003326  -0.0000831  -0.0001111   0.0000255   0.0001674
  111   0.0001600  -0.0004812   0.0000573   0.0001691  -0.0000362  -0.0002806
  112  -0.0000199   0.0000605  -0.0000209  -0.0000110  -0.0000120   0.0000204
  113   0.0000815  -0.0002500   0.0000356   0.0000921  -0.0000288  -0.0001416
  114  -0.0002193   0.0006599  -0.0001008  -0.0002248   0.0000632   0.0003447
  115   0.0006832  -0.0021494   0.0003536   0.0007646  -0.0001696  -0.0012293
  116  -0.0006954   0.0020765  -0.0002790  -0.0007184   0.0000890   0.0011766
  117  -0.0015143   0.0046063  -0.0006723  -0.0015994   0.0003181   0.0025816
  118   0.0001329  -0.0003807   0.0000475   0.0001173  -0.0000016  -0.0001823
  119  -0.0002390   0.0007275  -0.0001120  -0.0002601   0.0000938   0.0004018
  120   0.0000323  -0.0000980   0.0000125   0.0000320  -0.0000082  -0.0000477
  121   0.0000019  -0.0000094  -0.0000161   0.0000085  -0.0000055  -0.0000061
  122  -0.0000541   0.0001743  -0.0000408  -0.0000513   0.0000018   0.0001080
  123   0.0000644  -0.0001330   0.0000345   0.0000545  -0.0000125  -0.0000760
  124  -0.0001729   0.0005195  -0.0000481  -0.0001832   0.0000346   0.0003165
  125   0.0000504  -0.0001467  -0.0000027   0.0000496   0.0000053  -0.0001389
  126   0.0000055  -0.0000458   0.0000184  -0.0000025   0.0000196  -0.0000208
  127  -0.0000170   0.0000685  -0.0000174  -0.0000134  -0.0000121   0.0000833
  128   0.0001927  -0.0006408   0.0001155   0.0001996  -0.0000177  -0.0003954
  129   0.0000150  -0.0000361  -0.0000232   0.0000309  -0.0000504  -0.0000253
           19          20          21          22          23          24
    1   0.0000055  -0.0000457  -0.0000280   0.0001895   0.0002282  -0.0003481
    2   0.0000035   0.0000009  -0.0000123  -0.0000913   0.0000498  -0.0000236
    3  -0.0000076   0.0000141  -0.0000011   0.0000162  -0.0001263   0.0001717
    4   0.0011582  -0.0001137   0.0005196   0.0004843   0.0004190   0.0003792
    5   0.0010190   0.0019854   0.0004321  -0.0005040   0.0002288   0.0004311
    6   0.0003907   0.0005425   0.0006864  -0.0001657   0.0000714   0.0001837
    7  -0.0000126   0.0000740   0.0000576   0.0016964  -0.0052022   0.0026479
    8  -0.0000057   0.0001415   0.0000815   0.0059109  -0.0079739  -0.0032096
    9  -0.0000116   0.0000883   0.0000677  -0.0161766   0.0336435   0.0001918
   10   0.0005936   0.0002740   0.0000747  -0.0008331  -0.0002290  -0.0001820
   11   0.0004859   0.0005351   0.0004262  -0.0003970   0.0002169   0.0003071
   12   0.0000622   0.0002507   0.0003254  -0.0007268  -0.0000344   0.0006652
   13  -0.0129043  -0.0308055  -0.0142294  -0.0010722   0.0002711   0.0015960
   14   0.0034508   0.0043604   0.0036213  -0.0005603  -0.0008686  -0.0012422
   15  -0.0000422  -0.0014147  -0.0009386   0.0008455   0.0003262   0.0007349
   16  -0.0003135  -0.0014723  -0.0007970  -0.0653133  -0.0123710   0.0351552
   17   0.0000138   0.0005018   0.0002192  -0.0128900  -0.0820789   0.0997052
   18   0.0002338   0.0002784   0.0001588   0.0276068   0.0897718  -0.3255838
   19   0.3768855  -0.0758577   0.0201717   0.0000149   0.0000144   0.0000091
   20  -0.0758577   0.0816734  -0.0045381  -0.0000389  -0.0000199   0.0000102
   21   0.0201717  -0.0045381   0.0627467  -0.0000044   0.0000175   0.0000179
   22   0.0000149  -0.0000389  -0.0000044   0.0614295   0.0124760  -0.0321598
   23   0.0000144  -0.0000199   0.0000175   0.0124760   0.0896708  -0.0983044
   24   0.0000091   0.0000102   0.0000179  -0.0321598  -0.0983044   0.3476459
   25  -0.3629311   0.0749615  -0.0191912  -0.0000597   0.0000786   0.0000465
   26   0.0741473  -0.0798793   0.0083313   0.0000287   0.0000925   0.0000252
   27  -0.0211913   0.0086938  -0.0607144   0.0006090   0.0003209   0.0001622
   28   0.0006048  -0.0015621   0.0001810   0.0019888   0.0016368  -0.0005484
   29  -0.0012898  -0.0049763  -0.0027587   0.0092344   0.0064591  -0.0004654
   30  -0.0009874  -0.0036954  -0.0012717  -0.0134397  -0.0242723  -0.0238327
   31   0.0000029  -0.0001865  -0.0000944   0.0021186   0.0028940  -0.0046009
   32  -0.0000576  -0.0002045  -0.0001003  -0.0117810  -0.0013448   0.0015066
   33  -0.0000841  -0.0003624  -0.0001857   0.0338554  -0.0000296  -0.0019547
   34   0.0007646  -0.0004853  -0.0003607  -0.0000220  -0.0000051   0.0000016
   35  -0.0003042   0.0003070   0.0002095   0.0000058  -0.0000029   0.0000087
   36  -0.0006771  -0.0000207   0.0015411  -0.0000045  -0.0000215  -0.0000021
   37  -0.0082527   0.0056176   0.0345598   0.0001609   0.0000164   0.0000918
   38   0.0022734  -0.0019771  -0.0088818  -0.0000260  -0.0001256  -0.0000284
   39  -0.0008004   0.0015375   0.0020628  -0.0000627  -0.0000309  -0.0000465
   40   0.0016935   0.0296422  -0.0223078  -0.0000839  -0.0000703  -0.0000295
   41  -0.0035686  -0.0035582   0.0033592  -0.0000682  -0.0000503   0.0000010
   42   0.0028093  -0.0006267   0.0000677  -0.0000875  -0.0000496   0.0000063
   43   0.0003480  -0.0004669  -0.0009064   0.0007594  -0.0006045  -0.0019333
   44   0.0000451   0.0001517  -0.0000571  -0.0017519  -0.0037095   0.0015632
   45   0.0000006   0.0001491  -0.0000534  -0.0015179  -0.0012329   0.0014600
   46   0.0008677   0.0002278  -0.0003281  -0.0000385  -0.0000232  -0.0000308
   47  -0.0001162   0.0002232   0.0002200   0.0000386   0.0000445   0.0000244
   48  -0.0004171   0.0003840   0.0014720   0.0000333   0.0000050   0.0000194
   49   0.0000214   0.0000324   0.0000260  -0.0006902  -0.0000997   0.0004106
   50   0.0000001   0.0000381   0.0000015   0.0006904   0.0000700   0.0002182
   51   0.0000063  -0.0000057   0.0000084   0.0008524  -0.0000234  -0.0001391
   52  -0.0000190  -0.0000220   0.0000117  -0.0000035  -0.0000037   0.0000085
   53   0.0000027   0.0000015  -0.0000164   0.0000029   0.0000043   0.0000116
   54   0.0000167  -0.0000008   0.0000187   0.0000019   0.0000063   0.0000073
   55   0.0014832  -0.0005508   0.0003972  -0.0000390   0.0002030   0.0001913
   56  -0.0002428   0.0005763  -0.0002749  -0.0000015  -0.0000693  -0.0007000
   57   0.0005873  -0.0012071  -0.0062141   0.0002339   0.0001278   0.0003965
   58  -0.0000478   0.0004460   0.0016248  -0.0000291  -0.0000437  -0.0000746
   59   0.0000342  -0.0001206  -0.0005325  -0.0000238  -0.0000724   0.0000260
   60  -0.0000137  -0.0000859   0.0004039  -0.0000155   0.0001354   0.0001471
   61   0.0000530   0.0001045   0.0002810  -0.0004854  -0.0001764  -0.0008382
   62   0.0000904  -0.0000497   0.0000705  -0.0002395   0.0003442   0.0001403
   63  -0.0000870   0.0002651   0.0001566  -0.0000409  -0.0003650  -0.0002431
   64   0.0000007  -0.0000018   0.0000156  -0.0002746   0.0007156   0.0002430
   65  -0.0000028  -0.0000265  -0.0000085   0.0003766  -0.0003029  -0.0001969
   66   0.0000032   0.0000129   0.0000076   0.0002167  -0.0002176   0.0001230
   67  -0.0000135   0.0000723   0.0000234   0.0002651  -0.0000438   0.0001581
   68  -0.0000070   0.0000097   0.0000111   0.0003505   0.0000508  -0.0000505
   69  -0.0000031   0.0000297   0.0000162  -0.0000587   0.0001616   0.0001940
   70  -0.0000040  -0.0001389  -0.0000764   0.0000388   0.0002050  -0.0002182
   71   0.0000066   0.0001547   0.0000474  -0.0009951  -0.0005986   0.0006842
   72   0.0000082  -0.0001109  -0.0000717   0.0002031  -0.0000677  -0.0002238
   73  -0.0000240   0.0000050   0.0000150   0.0000031   0.0000189   0.0000158
   74   0.0000018   0.0000162  -0.0000084   0.0000118   0.0000228   0.0000053
   75   0.0000188   0.0000491   0.0001232   0.0000016  -0.0000025  -0.0000092
   76   0.0000643   0.0002682   0.0001529   0.0000591   0.0000517  -0.0002177
   77  -0.0001255   0.0000268   0.0003762  -0.0001755  -0.0003629  -0.0000871
   78  -0.0000330   0.0000246  -0.0000547   0.0000348   0.0001409  -0.0002532
   79  -0.0000579  -0.0001305   0.0000428   0.0000048  -0.0000214   0.0000043
   80   0.0000017   0.0002205  -0.0001361  -0.0000104  -0.0000321  -0.0000074
   81   0.0000148  -0.0000443   0.0000573  -0.0000006  -0.0000011  -0.0000042
   82   0.0000305   0.0000619   0.0002009  -0.0000105  -0.0000093   0.0000075
   83  -0.0000301   0.0000207   0.0000996   0.0000019   0.0000043  -0.0000016
   84   0.0000235  -0.0001065  -0.0005211   0.0000264  -0.0000018  -0.0000059
   85  -0.0000001  -0.0000616  -0.0000776  -0.0000547  -0.0000254   0.0000417
   86  -0.0000047  -0.0000038   0.0000093   0.0000414   0.0000018   0.0000328
   87  -0.0000013  -0.0000334  -0.0000520   0.0000449   0.0000719  -0.0000364
   88  -0.0000161   0.0000342   0.0000146  -0.0000278  -0.0000595   0.0000225
   89   0.0000182   0.0000560   0.0000245  -0.0000072  -0.0000106  -0.0000863
   90   0.0000122  -0.0000694   0.0000246  -0.0000296  -0.0000506   0.0000540
   91  -0.0000022  -0.0000327  -0.0000045   0.0001865   0.0000181  -0.0001361
   92   0.0000011  -0.0000379  -0.0000234  -0.0000771  -0.0000065  -0.0000003
   93   0.0000058   0.0002765   0.0000941  -0.0009546  -0.0006881   0.0008880
   94   0.0000087   0.0000373   0.0000003  -0.0000064   0.0000036  -0.0000006
   95   0.0000049  -0.0000411  -0.0001774   0.0000066   0.0000125   0.0000179
   96  -0.0000114  -0.0000295   0.0001056   0.0000119  -0.0000036  -0.0000022
   97   0.0000002   0.0000551   0.0000221  -0.0000848  -0.0001451   0.0001441
   98  -0.0000015  -0.0000298  -0.0000071   0.0001538   0.0001517  -0.0001153
   99  -0.0000008  -0.0000522  -0.0000177   0.0001675   0.0001667  -0.0001594
  100  -0.0000003  -0.0000072  -0.0000060   0.0000263   0.0000222  -0.0000249
  101  -0.0000003  -0.0000033  -0.0000010   0.0000049   0.0000122  -0.0000102
  102  -0.0000002  -0.0000104  -0.0000048   0.0000254   0.0000168  -0.0000304
  103   0.0000031   0.0001654   0.0000507  -0.0005860  -0.0004338   0.0004311
  104  -0.0000046  -0.0001824  -0.0000553   0.0007008   0.0005858  -0.0005720
  105  -0.0000057  -0.0002288  -0.0000784   0.0008011   0.0006177  -0.0006971
  106  -0.0000035  -0.0002056  -0.0000696   0.0006889   0.0005017  -0.0005531
  107   0.0000053   0.0002391   0.0000790  -0.0008447  -0.0006355   0.0006947
  108   0.0000054   0.0002862   0.0001016  -0.0009566  -0.0006750   0.0007901
  109  -0.0000004   0.0000090   0.0000028  -0.0000340  -0.0000183   0.0000262
  110  -0.0000004  -0.0000178  -0.0000073   0.0000584   0.0000399  -0.0000457
  111   0.0000005   0.0000274   0.0000087  -0.0000866  -0.0000690   0.0000787
  112  -0.0000003  -0.0000049  -0.0000041   0.0000073   0.0000050  -0.0000041
  113   0.0000003   0.0000135   0.0000055  -0.0000494  -0.0000327   0.0000391
  114  -0.0000002  -0.0000371  -0.0000129   0.0001208   0.0000741  -0.0000991
  115   0.0000025   0.0001153   0.0000402  -0.0003898  -0.0003053   0.0003266
  116  -0.0000019  -0.0001186  -0.0000412   0.0003748   0.0002905  -0.0003068
  117  -0.0000048  -0.0002561  -0.0000894   0.0008404   0.0006201  -0.0006964
  118  -0.0000005   0.0000223   0.0000065  -0.0000674  -0.0000357   0.0000508
  119  -0.0000001  -0.0000394  -0.0000128   0.0001356   0.0000893  -0.0001159
  120   0.0000002   0.0000059   0.0000025  -0.0000186  -0.0000095   0.0000153
  121  -0.0000004   0.0000029  -0.0000000  -0.0000017  -0.0000110   0.0000059
  122  -0.0000002  -0.0000055  -0.0000015   0.0000243   0.0000254  -0.0000237
  123  -0.0000005   0.0000074   0.0000041  -0.0000326  -0.0000087   0.0000158
  124  -0.0000019  -0.0000376  -0.0000073   0.0000942   0.0001156  -0.0000911
  125  -0.0000002   0.0000110   0.0000025  -0.0000067  -0.0000720   0.0000429
  126   0.0000004  -0.0000063  -0.0000024  -0.0000054  -0.0000040   0.0000159
  127  -0.0000005  -0.0000009  -0.0000000  -0.0000086   0.0000426  -0.0000239
  128   0.0000012   0.0000273   0.0000071  -0.0000893  -0.0000981   0.0000976
  129  -0.0000003   0.0000089   0.0000042  -0.0000034  -0.0000060   0.0000348
           25          26          27          28          29          30
    1   0.0002386   0.0003106   0.0004705   0.0056867  -0.0081669  -0.0057676
    2   0.0000646   0.0000408   0.0000894   0.0010032  -0.0013221  -0.0006840
    3  -0.0000966  -0.0001561  -0.0002203  -0.0025672   0.0038336   0.0028567
    4   0.0036996  -0.0181521   0.0087338  -0.0166996   0.0294578  -0.0168981
    5   0.0052222  -0.0230166   0.0131872   0.0105087  -0.0055550  -0.0021748
    6   0.0027086  -0.0154790   0.0061482   0.0008984  -0.0027321   0.0013865
    7   0.0001963  -0.0001882   0.0001120   0.0091143  -0.0146855   0.0050530
    8   0.0002358  -0.0001429  -0.0003802   0.0065124  -0.0208412  -0.0030672
    9   0.0001986  -0.0001664  -0.0003860   0.0091750  -0.0258116  -0.0041658
   10   0.0060506  -0.0001340  -0.0174475  -0.0125707   0.0051754   0.0357786
   11   0.0081787  -0.0024480  -0.0251821   0.0095029  -0.0042125  -0.0055122
   12   0.0024283   0.0009048  -0.0070345   0.0019643  -0.0007913   0.0003537
   13  -0.1175066  -0.0498593  -0.0174855  -0.2077242   0.0013687   0.0070187
   14  -0.0524291  -0.1733889  -0.0399401  -0.0094980  -0.0744372  -0.0029164
   15  -0.0200910  -0.0386842  -0.1108482   0.0132903  -0.0115405  -0.0895955
   16  -0.0043687   0.0032875   0.0012091  -0.1349976  -0.0493386  -0.0473464
   17   0.0010867  -0.0008600  -0.0016309  -0.0397650  -0.1339210  -0.0570530
   18   0.0025493   0.0002808   0.0028622  -0.0356069  -0.0455649  -0.1217710
   19  -0.3629311   0.0741473  -0.0211913   0.0006048  -0.0012898  -0.0009874
   20   0.0749615  -0.0798793   0.0086938  -0.0015621  -0.0049763  -0.0036954
   21  -0.0191912   0.0083313  -0.0607144   0.0001810  -0.0027587  -0.0012717
   22  -0.0000597   0.0000287   0.0006090   0.0019888   0.0092344  -0.0134397
   23   0.0000786   0.0000925   0.0003209   0.0016368   0.0064591  -0.0242723
   24   0.0000465   0.0000252   0.0001622  -0.0005484  -0.0004654  -0.0238327
   25   0.6826443  -0.0481152   0.0100105  -0.0252119  -0.0270443  -0.0155953
   26  -0.0481152   0.6358733  -0.0860258  -0.0053231   0.0061709   0.0049620
   27   0.0100105  -0.0860258   0.5788505  -0.0108078   0.0063214   0.0025338
   28  -0.0252119  -0.0053231  -0.0108078   0.5542956  -0.0170761  -0.0201212
   29  -0.0270443   0.0061709   0.0063214  -0.0170761   0.4066589   0.2124375
   30  -0.0155953   0.0049620   0.0025338  -0.0201212   0.2124375   0.4189298
   31  -0.0004013   0.0004669   0.0000834  -0.0106776   0.0006223   0.0024526
   32  -0.0007511   0.0003853  -0.0001217  -0.0229131  -0.0004637   0.0086396
   33  -0.0012651   0.0006165   0.0002975  -0.0270117  -0.0000833   0.0051414
   34   0.0012912  -0.0130681   0.0081466  -0.0005878   0.0007962   0.0000464
   35  -0.0012036   0.0090111  -0.0080086  -0.0001859   0.0001292   0.0002394
   36  -0.0025719   0.0283370  -0.0196374  -0.0003821   0.0000328   0.0004057
   37  -0.1055129   0.0099372   0.0433573   0.0012739   0.0007074   0.0031935
   38   0.0089990  -0.1010067  -0.0146986   0.0016889   0.0000906   0.0000521
   39   0.0419551  -0.0181407  -0.2103332   0.0015340   0.0028948   0.0007333
   40  -0.0701241   0.0257855  -0.0174277   0.0015509  -0.0007528   0.0007002
   41   0.0261750  -0.2650580   0.1496718   0.0019471   0.0002756   0.0002354
   42  -0.0180635   0.1515923  -0.1694725   0.0019654  -0.0012077  -0.0002056
   43   0.0052395   0.0022474   0.0015195  -0.1508603   0.0608975   0.0582759
   44  -0.0000568  -0.0008587  -0.0002345   0.0469433  -0.1677014  -0.1099479
   45  -0.0010445  -0.0026191  -0.0029567   0.0455121  -0.1067285  -0.1748043
   46   0.0082149   0.0125098   0.0064419  -0.0005588   0.0001960   0.0001964
   47  -0.0014385  -0.0024396   0.0004740   0.0004394  -0.0001351   0.0000219
   48  -0.0165693  -0.0252933  -0.0127590   0.0010544  -0.0001542  -0.0001263
   49  -0.0001600  -0.0002903  -0.0005511  -0.0049460   0.0107746   0.0051548
   50  -0.0000535  -0.0002419  -0.0003515  -0.0021651   0.0047174  -0.0004293
   51   0.0000914   0.0001078   0.0001186   0.0003292  -0.0016281  -0.0012704
   52  -0.0000521   0.0001836  -0.0001080   0.0000834   0.0001067   0.0000575
   53   0.0000597   0.0000815   0.0000384   0.0000402  -0.0000505   0.0001213
   54  -0.0001110  -0.0000811   0.0000336  -0.0001011   0.0005550   0.0002749
   55  -0.0156974   0.0053364   0.0081298   0.0136197   0.0117297   0.0084099
   56   0.0043229  -0.0024266  -0.0035380  -0.0023859  -0.0084351  -0.0188709
   57   0.0344552  -0.0076359   0.0032375  -0.0055360  -0.0189634  -0.0076558
   58  -0.0057188   0.0008139  -0.0018365  -0.0005845  -0.0052361  -0.0038316
   59   0.0023600  -0.0000166   0.0003331  -0.0014170  -0.0035506  -0.0022960
   60  -0.0019354   0.0003285   0.0000054  -0.0021493   0.0036851  -0.0002789
   61   0.0003746   0.0001557  -0.0000522  -0.0130075  -0.0081873  -0.0029579
   62   0.0000645   0.0002979   0.0004138   0.0284634  -0.0067419  -0.0002622
   63  -0.0001972  -0.0008185  -0.0007453   0.0254662   0.0000611   0.0006636
   64   0.0000034   0.0000173  -0.0000185  -0.0000496  -0.0008929  -0.0009847
   65  -0.0000153   0.0000528   0.0000344   0.0005039   0.0001499   0.0003081
   66   0.0000005  -0.0000329  -0.0000313  -0.0005394   0.0005112   0.0003781
   67  -0.0000856  -0.0003591  -0.0003565  -0.0023953   0.0029873   0.0018891
   68   0.0000994  -0.0000134   0.0000307   0.0018204  -0.0024896  -0.0031421
   69   0.0000188  -0.0001220  -0.0000870   0.0002683  -0.0005344  -0.0004399
   70   0.0001386   0.0004898   0.0004597   0.0044534  -0.0075596  -0.0057520
   71  -0.0004263  -0.0006768  -0.0007878  -0.0117541   0.0171712   0.0146598
   72   0.0000080   0.0004318   0.0004731   0.0057228  -0.0061476  -0.0030106
   73  -0.0000240  -0.0000113  -0.0001269  -0.0000917   0.0016094   0.0010155
   74   0.0000719  -0.0000832   0.0000995  -0.0001357   0.0006054   0.0003259
   75  -0.0003324   0.0001495   0.0000813  -0.0003947  -0.0012955  -0.0010917
   76   0.0004334  -0.0006841  -0.0009726   0.0002800  -0.0035743  -0.0035007
   77  -0.0002092   0.0000905   0.0002733  -0.0026401   0.0002963   0.0030364
   78  -0.0000059  -0.0002573  -0.0002597   0.0004495  -0.0029393  -0.0061918
   79  -0.0001512   0.0008226  -0.0002014   0.0000780   0.0000869   0.0002857
   80   0.0000596  -0.0004812   0.0001759  -0.0004321   0.0001979   0.0005836
   81   0.0003778  -0.0004247   0.0000280   0.0001866   0.0000370  -0.0001692
   82  -0.0004580  -0.0000866  -0.0002768  -0.0002959   0.0002423   0.0004089
   83  -0.0003982   0.0003308  -0.0000573  -0.0000032   0.0001263   0.0000514
   84   0.0018555  -0.0001805   0.0007720   0.0001622  -0.0006127  -0.0000070
   85   0.0002457   0.0001630   0.0000813  -0.0070324   0.0006875   0.0003900
   86   0.0000082  -0.0000195  -0.0000970  -0.0001204   0.0018248  -0.0014982
   87   0.0001838   0.0000653   0.0001289  -0.0008466  -0.0019862  -0.0001836
   88  -0.0002121   0.0000447   0.0000668  -0.0002959   0.0003580   0.0009326
   89   0.0000308  -0.0000974  -0.0001164   0.0000024  -0.0011175  -0.0015577
   90   0.0000760   0.0000826  -0.0000627  -0.0003111   0.0008238   0.0014487
   91  -0.0000171   0.0000667   0.0000415   0.0015543  -0.0010771  -0.0018284
   92  -0.0000063   0.0001462   0.0000922  -0.0002454  -0.0009327  -0.0000795
   93  -0.0003070  -0.0009483  -0.0010069  -0.0139010   0.0176959   0.0172763
   94   0.0000300  -0.0001382  -0.0001744  -0.0001915   0.0001653   0.0000780
   95  -0.0000875   0.0002021   0.0004900   0.0001452   0.0002937  -0.0000599
   96   0.0000754  -0.0000166  -0.0001016   0.0000810  -0.0000708   0.0000614
   97  -0.0000311  -0.0001903  -0.0001738  -0.0021091   0.0028916   0.0027504
   98   0.0000682   0.0001137   0.0001529   0.0025576  -0.0032682  -0.0032743
   99   0.0000650   0.0001923   0.0002103   0.0028514  -0.0038984  -0.0037442
  100   0.0000169   0.0000228   0.0000335   0.0005550  -0.0005053  -0.0005846
  101   0.0000056   0.0000104   0.0000075   0.0000430  -0.0001122  -0.0001557
  102   0.0000125   0.0000319   0.0000298   0.0002666  -0.0003744  -0.0004394
  103  -0.0002208  -0.0005769  -0.0006388  -0.0088406   0.0114166   0.0116340
  104   0.0002197   0.0006244   0.0006688   0.0097811  -0.0127625  -0.0125942
  105   0.0002898   0.0007768   0.0008290   0.0113803  -0.0151026  -0.0144918
  106   0.0002242   0.0007115   0.0007521   0.0098402  -0.0131076  -0.0129961
  107  -0.0002655  -0.0008279  -0.0008747  -0.0117898   0.0156135   0.0154137
  108  -0.0003105  -0.0009893  -0.0010400  -0.0134136   0.0179239   0.0174534
  109  -0.0000029  -0.0000311  -0.0000333  -0.0004792   0.0005543   0.0006579
  110   0.0000231   0.0000634   0.0000683   0.0008303  -0.0011605  -0.0010306
  111  -0.0000251  -0.0000962  -0.0000968  -0.0012611   0.0016961   0.0016895
  112   0.0000111   0.0000155   0.0000184   0.0001644  -0.0002389  -0.0002123
  113  -0.0000164  -0.0000451  -0.0000493  -0.0006519   0.0008619   0.0008453
  114   0.0000392   0.0001281   0.0001346   0.0016261  -0.0021995  -0.0021134
  115  -0.0001286  -0.0004031  -0.0004265  -0.0055717   0.0075612   0.0072875
  116   0.0001206   0.0004149   0.0004320   0.0055778  -0.0074711  -0.0074427
  117   0.0002725   0.0008882   0.0009294   0.0119712  -0.0160672  -0.0157822
  118  -0.0000176  -0.0000774  -0.0000794  -0.0009469   0.0012792   0.0012755
  119   0.0000400   0.0001385   0.0001444   0.0018034  -0.0024284  -0.0023161
  120  -0.0000062  -0.0000200  -0.0000201  -0.0002380   0.0003230   0.0003170
  121   0.0000028  -0.0000080  -0.0000056  -0.0000447   0.0000967   0.0001070
  122   0.0000109   0.0000224   0.0000270   0.0003988  -0.0005317  -0.0005092
  123  -0.0000071  -0.0000297  -0.0000366  -0.0004975   0.0005971   0.0005748
  124   0.0000305   0.0001260   0.0001058   0.0014340  -0.0019634  -0.0019564
  125  -0.0000081  -0.0000356  -0.0000366  -0.0005279   0.0007881   0.0008158
  126   0.0000046   0.0000148   0.0000086   0.0000511  -0.0000557  -0.0000663
  127   0.0000071   0.0000062   0.0000093   0.0001931  -0.0003066  -0.0002893
  128  -0.0000424  -0.0000994  -0.0001093  -0.0015580   0.0021874   0.0020925
  129   0.0000030  -0.0000297  -0.0000246  -0.0001526   0.0002847   0.0002307
           31          32          33          34          35          36
    1  -0.0008795   0.0005404   0.0010372  -0.0000987  -0.0000218   0.0000691
    2  -0.0002225   0.0005479   0.0002517  -0.0000030  -0.0000005  -0.0000049
    3   0.0007628  -0.0002989  -0.0002733   0.0000419   0.0000197  -0.0000290
    4   0.0001330  -0.0005727   0.0002616   0.0002354  -0.0000203  -0.0001933
    5   0.0000816  -0.0002149   0.0000795   0.0001842   0.0000711  -0.0003170
    6   0.0000603  -0.0001417  -0.0000251  -0.0001907   0.0000827   0.0000107
    7  -0.0085605   0.0324804  -0.0041743  -0.0000252   0.0000028  -0.0000076
    8  -0.0067553   0.0081812   0.0006980  -0.0000229   0.0000062   0.0000121
    9   0.0038091  -0.0087973  -0.0002151  -0.0000282  -0.0000038   0.0000080
   10   0.0003044   0.0003543   0.0000095   0.0000345  -0.0000642   0.0001534
   11   0.0000160  -0.0002092   0.0000828   0.0000757   0.0000170   0.0001867
   12  -0.0001869  -0.0001842   0.0000568  -0.0000080  -0.0000149   0.0003888
   13   0.0006287  -0.0002088  -0.0004855   0.0001808   0.0003601  -0.0001701
   14  -0.0020357  -0.0005453  -0.0046255  -0.0003831   0.0006786   0.0008090
   15  -0.0007515  -0.0030681  -0.0020513  -0.0004069  -0.0007851   0.0017326
   16  -0.3721287  -0.0265942   0.0730397   0.0002120  -0.0000250  -0.0000287
   17  -0.0277693  -0.0669271   0.0082454  -0.0000809   0.0000057   0.0001226
   18   0.0710798   0.0068492  -0.0759492  -0.0000012   0.0000131  -0.0000937
   19   0.0000029  -0.0000576  -0.0000841   0.0007646  -0.0003042  -0.0006771
   20  -0.0001865  -0.0002045  -0.0003624  -0.0004853   0.0003070  -0.0000207
   21  -0.0000944  -0.0001003  -0.0001857  -0.0003607   0.0002095   0.0015411
   22   0.0021186  -0.0117810   0.0338554  -0.0000220   0.0000058  -0.0000045
   23   0.0028940  -0.0013448  -0.0000296  -0.0000051  -0.0000029  -0.0000215
   24  -0.0046009   0.0015066  -0.0019547   0.0000016   0.0000087  -0.0000021
   25  -0.0004013  -0.0007511  -0.0012651   0.0012912  -0.0012036  -0.0025719
   26   0.0004669   0.0003853   0.0006165  -0.0130681   0.0090111   0.0283370
   27   0.0000834  -0.0001217   0.0002975   0.0081466  -0.0080086  -0.0196374
   28  -0.0106776  -0.0229131  -0.0270117  -0.0005878  -0.0001859  -0.0003821
   29   0.0006223  -0.0004637  -0.0000833   0.0007962   0.0001292   0.0000328
   30   0.0024526   0.0086396   0.0051414   0.0000464   0.0002394   0.0004057
   31   0.3913039   0.0271810  -0.0774932   0.0000127  -0.0000067   0.0000023
   32   0.0271810   0.0647569  -0.0040551   0.0000277   0.0000017  -0.0000067
   33  -0.0774932  -0.0040551   0.0759154   0.0000248  -0.0000029  -0.0000164
   34   0.0000127   0.0000277   0.0000248   0.0690369  -0.0297252   0.0171071
   35  -0.0000067   0.0000017  -0.0000029  -0.0297252   0.2837595  -0.1517616
   36   0.0000023  -0.0000067  -0.0000164   0.0171071  -0.1517616   0.1692902
   37  -0.0000653  -0.0001580  -0.0000652  -0.0637838   0.0244953  -0.0223396
   38  -0.0000413   0.0000845   0.0000769   0.0244272  -0.2746689   0.1449122
   39   0.0000227   0.0001665   0.0001964  -0.0215042   0.1427429  -0.1612011
   40   0.0000058   0.0000435  -0.0000052  -0.0002569   0.0008661   0.0022789
   41   0.0000106   0.0000264   0.0000121   0.0015940  -0.0000395  -0.0027346
   42  -0.0000259   0.0000071  -0.0000279   0.0029169  -0.0025898  -0.0042594
   43   0.0011675   0.0013956   0.0007600   0.0015257  -0.0003255   0.0002334
   44   0.0019151   0.0004056   0.0012557   0.0009785   0.0004359  -0.0006616
   45   0.0017568   0.0002754  -0.0000100   0.0004785  -0.0002643  -0.0004209
   46   0.0000315   0.0000398   0.0000385   0.0036707   0.0062742   0.0021508
   47  -0.0000004  -0.0000384  -0.0000176  -0.0154501  -0.0158816  -0.0162557
   48  -0.0000425  -0.0000179  -0.0000287   0.0128847   0.0180395   0.0107860
   49  -0.0020454  -0.0001925   0.0002095  -0.0001444  -0.0000850  -0.0001226
   50   0.0012316  -0.0002207   0.0002084   0.0000041  -0.0000254  -0.0000926
   51   0.0038428  -0.0010907  -0.0009147  -0.0000925  -0.0000330   0.0000309
   52  -0.0000010  -0.0000041  -0.0000123   0.0000952  -0.0000519   0.0001493
   53  -0.0000079   0.0000042   0.0000001  -0.0003847   0.0002195   0.0000503
   54  -0.0000106   0.0000049  -0.0000021   0.0002331  -0.0000809   0.0002658
   55  -0.0002113  -0.0000625  -0.0000628  -0.0076559  -0.0006217   0.0012620
   56  -0.0000198   0.0002254   0.0002622   0.0293272  -0.0051915   0.0000498
   57  -0.0000330   0.0001073   0.0000437  -0.0179968   0.0011736  -0.0000306
   58  -0.0000260   0.0001564   0.0001061   0.0007913  -0.0007579   0.0014805
   59   0.0000131   0.0000455  -0.0000111   0.0009729   0.0004149  -0.0013509
   60   0.0000481  -0.0000073  -0.0000659  -0.0014574   0.0005297   0.0005490
   61   0.0002484  -0.0003667  -0.0007024  -0.0002058   0.0000506   0.0004256
   62   0.0000296  -0.0011444  -0.0016829  -0.0004188  -0.0001154   0.0002216
   63  -0.0002724  -0.0008928  -0.0000837   0.0003527   0.0000530   0.0000111
   64  -0.0001967   0.0009766  -0.0000137  -0.0000000  -0.0000020   0.0000104
   65   0.0004697  -0.0013842   0.0007310   0.0000100  -0.0000008   0.0000149
   66   0.0004206   0.0002497   0.0000336   0.0000057   0.0000017  -0.0000148
   67  -0.0003647  -0.0001159   0.0017349   0.0001200   0.0000506  -0.0000369
   68   0.0001475   0.0000299  -0.0008647  -0.0000160  -0.0000100   0.0000564
   69  -0.0009332   0.0007864  -0.0001434   0.0000732   0.0000357  -0.0000141
   70  -0.0001993   0.0009984   0.0000975   0.0001086  -0.0000304   0.0000686
   71   0.0020472  -0.0022436  -0.0009579   0.0000678   0.0000267  -0.0002587
   72  -0.0001374  -0.0000732   0.0003416  -0.0000279  -0.0000284   0.0000339
[...]
 -----------------------------------------------------------------
 Calculating analytic gradient of the SCF energy
 Gradient of SCF Energy
            1           2           3           4           5           6
    1  -0.0000262   0.0001894   0.0000461  -0.0000287  -0.0001180  -0.0000474
    2  -0.0000410  -0.0002953  -0.0000981   0.0000296   0.0004407   0.0001713
    3  -0.0000270   0.0002211  -0.0000077   0.0001743  -0.0004368  -0.0002208
            7           8           9          10          11          12
    1  -0.0001134   0.0000145   0.0002453  -0.0000607  -0.0000023   0.0000327
    2   0.0000528  -0.0000324  -0.0005836   0.0002431  -0.0000237   0.0000687
    3  -0.0000122   0.0001456   0.0005320   0.0002047  -0.0000134  -0.0000557
           13          14          15          16          17          18
    1  -0.0004798  -0.0001102   0.0000952   0.0003207  -0.0002555  -0.0000407
    2  -0.0005178   0.0003999  -0.0002659   0.0004565   0.0001500  -0.0001644
    3  -0.0002513  -0.0003482  -0.0003222   0.0002593  -0.0003616   0.0000544
           19          20          21          22          23          24
    1   0.0000252   0.0007353   0.0001298   0.0001073   0.0001830   0.0001558
    2   0.0000248   0.0006012  -0.0001231  -0.0000409  -0.0000823  -0.0002461
    3   0.0000144   0.0005302  -0.0004353  -0.0002653   0.0002093   0.0005668
           25          26          27          28          29          30
    1  -0.0005542  -0.0003571   0.0000318  -0.0001625  -0.0001623   0.0001252
    2  -0.0004922   0.0000157  -0.0000115  -0.0000064   0.0002548   0.0001245
    3  -0.0004562  -0.0001108   0.0000047  -0.0000171   0.0002959   0.0001440
           31          32          33          34          35          36
    1   0.0001062   0.0001750  -0.0013740   0.0000767   0.0000233  -0.0008332
    2  -0.0001605  -0.0000874   0.0008334   0.0003886  -0.0006679   0.0009378
    3   0.0005012   0.0000411  -0.0017350  -0.0007092   0.0006891   0.0002606
           37          38          39          40          41          42
    1   0.0000736  -0.0002395   0.0022502  -0.0014687   0.0004661   0.0004731
    2  -0.0001842   0.0006105  -0.0032330   0.0021010  -0.0012597  -0.0001851
    3   0.0001777  -0.0006093   0.0000916   0.0000313   0.0000310   0.0001445
           43
    1   0.0003530
    2   0.0008976
    3   0.0010701
 Max gradient component =       3.233E-03
 RMS gradient           =       5.747E-04
 Gradient time:  CPU 32.01 s  wall 2.78 s
    ==================================================
         Total gradient calculations so far = 24
    ==================================================
 ----------------------------------------------------------------
             Standard Nuclear Orientation (Angstroms)
    I     Atom           X                Y                Z
 ----------------------------------------------------------------
    1      Fe      2.6962881377     1.8107569754    -0.8195771736
    2      H      -4.1307877249     2.2872741454     0.2077644172
    3      H      -2.0022793807     3.2472646567     1.5532640779
    4      H      -4.0857577789     1.6781094880     1.8729591183
    5      C      -3.8362760586     1.4110366405     0.8283979307
    6      C      -1.5378290873     2.2470829524     1.6181910214
    7      H      -5.6800014589     0.3821942708     0.2962256220
    8      H      -1.6461660463     1.9191076318     2.6703964329
    9      C      -4.6028128330     0.1497296331     0.3450717059
   10      C      -2.3127121187     1.2827536830     0.7127803235
   11      H      -0.4742821025     2.3303826919     1.3649221757
   12      H      -4.2480805233     0.5856895633    -1.7589058811
   13      C      -4.0839399420    -0.2513848862    -1.0584823119
   14      H      -4.4678170207    -0.6727970452     1.0673401400
   15      C      -1.7247550875     0.3519421188    -0.1687217280
   16      H      -4.6468555450    -1.1194508628    -1.4397089081
   17      O       0.6059307617     1.4923448571    -0.3225449311
   18      H      -2.0460930637     0.4507561391    -2.9408937950
   19      C      -2.5539008153    -0.6246427919    -1.0619549373
   20      C      -2.0547539190    -0.5816193842    -2.5581925369
   21      C      -0.2152742640     0.1692046648    -0.2571863289
   22      H       0.1035209586    -0.0168150440     1.9956689081
   23      O       1.5252452577     1.0305802578     0.7755103308
   24      C       0.6559656641    -0.2262873236     1.0530061600
   25      H      -2.7576410546    -1.1693718939    -3.1682640871
   26      C      -2.3605170702    -2.0920080791    -0.5018328951
   27      H      -2.7556926351    -2.1794445279     0.5218349512
   28      H      -1.0555154233    -1.0251889724    -2.6845702486
   29      H       0.0576034489    -0.4565185078    -1.1327999960
   30      H      -2.9118608507    -2.7897889416    -1.1507340690
   31      C       1.4066051723    -1.5492262971     1.1503421672
   32      H      -1.2999029684    -2.3872717121    -0.5030939676
   33      C       1.1621568307    -2.3172589917     2.4528201547
   34      H       2.2797242491    -1.3883888601    -0.8181983205
   35      C       2.2149246584    -1.9934104460     0.1046647050
   36      C       3.0027486990    -3.2169792620     0.1105667707
   37      H       2.9997410006    -3.8452201498     1.0149043651
   38      H       3.7943134021    -3.0134497197    -1.9093621942
   39      C       3.7522429439    -3.6102878734    -0.9811147224
   40      H       4.3373633010    -4.5471945384    -0.9605878641
   41      H       1.6703634640    -3.2907533628     2.4575430004
   42      H       0.0785187683    -2.4865863792     2.5953064929
   43      H       1.5208880547    -1.7217045173     3.3138159252
 ----------------------------------------------------------------
 Nuclear Repulsion Energy =  1788.7415725585 hartrees
 There are       82 alpha and       78 beta electrons
 ------------------------------------------------------------------------------
         Vec  Conv   RNorm       Lowest eigenvalues (eV/Hartrees)
 ------------------------------------------------------------------------------
     5    12     2  2.95e-06     0.00221 (0.00008)*    0.00735 (0.00027)*
 ------------------------------------------------------------------------------
Lowest eigenvalue(s) (in eV):
0.00221
0.00735
Tolerance for negative eigenvalues: 1.0e-05

    ==================================================
                  Failed to find transition state
                The end of Characterization              
    ==================================================
Total cost of characterization (# gradients):   24
Time spent in characterization:  3.0e+03s (CPU)  254s (wall)

                       Coordinates (Angstroms)
     ATOM                X               Y               Z
      1  Fe        2.6962881377    1.8107569754   -0.8195771736
      2  H        -4.1307877249    2.2872741454    0.2077644172
      3  H        -2.0022793807    3.2472646567    1.5532640779
      4  H        -4.0857577789    1.6781094880    1.8729591183
      5  C        -3.8362760586    1.4110366405    0.8283979307
      6  C        -1.5378290873    2.2470829524    1.6181910214
      7  H        -5.6800014589    0.3821942708    0.2962256220
      8  H        -1.6461660463    1.9191076318    2.6703964329
      9  C        -4.6028128330    0.1497296331    0.3450717059
     10  C        -2.3127121187    1.2827536830    0.7127803235
     11  H        -0.4742821025    2.3303826919    1.3649221757
     12  H        -4.2480805233    0.5856895633   -1.7589058811
     13  C        -4.0839399420   -0.2513848862   -1.0584823119
     14  H        -4.4678170207   -0.6727970452    1.0673401400
     15  C        -1.7247550875    0.3519421188   -0.1687217280
     16  H        -4.6468555450   -1.1194508628   -1.4397089081
     17  O         0.6059307617    1.4923448571   -0.3225449311
     18  H        -2.0460930637    0.4507561391   -2.9408937950
     19  C        -2.5539008153   -0.6246427919   -1.0619549373
     20  C        -2.0547539190   -0.5816193842   -2.5581925369
     21  C        -0.2152742640    0.1692046648   -0.2571863289
     22  H         0.1035209586   -0.0168150440    1.9956689081
     23  O         1.5252452577    1.0305802578    0.7755103308
     24  C         0.6559656641   -0.2262873236    1.0530061600
     25  H        -2.7576410546   -1.1693718939   -3.1682640871
     26  C        -2.3605170702   -2.0920080791   -0.5018328951
     27  H        -2.7556926351   -2.1794445279    0.5218349512
     28  H        -1.0555154233   -1.0251889724   -2.6845702486
     29  H         0.0576034489   -0.4565185078   -1.1327999960
     30  H        -2.9118608507   -2.7897889416   -1.1507340690
     31  C         1.4066051723   -1.5492262971    1.1503421672
     32  H        -1.2999029684   -2.3872717121   -0.5030939676
     33  C         1.1621568307   -2.3172589917    2.4528201547
     34  H         2.2797242491   -1.3883888601   -0.8181983205
     35  C         2.2149246584   -1.9934104460    0.1046647050
     36  C         3.0027486990   -3.2169792620    0.1105667707
     37  H         2.9997410006   -3.8452201498    1.0149043651
     38  H         3.7943134021   -3.0134497197   -1.9093621942
     39  C         3.7522429439   -3.6102878734   -0.9811147224
     40  H         4.3373633010   -4.5471945384   -0.9605878641
     41  H         1.6703634640   -3.2907533628    2.4575430004
     42  H         0.0785187683   -2.4865863792    2.5953064929
     43  H         1.5208880547   -1.7217045173    3.3138159252

Z-matrix Print:
$molecule
2 5
Fe
O  1 2.127045
O  2 1.504690 1 71.128685
C  2 1.553180 1 137.639882 3 71.507291 0
H  4 1.112514 2 106.077694 1 -168.800425 0
C  4 1.524172 2 115.986318 1 67.819839 0
C  6 1.394318 4 120.938820 2 -56.466254 0
H  7 1.105408 6 119.060496 4 -2.089732 0
C  7 1.455274 6 125.355127 4 178.104125 0
H  9 1.101146 7 118.786481 6 -1.921603 0
C  9 1.381377 7 121.999315 6 178.147685 0
H  11 1.104368 9 122.076339 7 0.309370 0
H  11 1.104799 9 120.938998 7 -179.484363 0
C  6 1.531691 4 114.263389 2 124.737410 0
H  14 1.098175 6 111.981051 4 176.482096 0
H  14 1.106004 6 110.040538 4 55.732550 0
H  14 1.106656 6 109.877334 4 -62.378296 0
C  3 1.558637 2 91.764130 1 132.818874 0
H  18 1.110266 3 108.412937 2 -104.826950 0
C  18 1.523073 3 115.008703 2 130.388083 0
C  20 1.410372 18 121.914061 3 -45.633985 0
C  21 1.533018 20 124.999616 18 2.982537 0
H  22 1.096456 21 113.681831 20 13.652408 0
H  22 1.104669 21 108.802675 20 135.304168 0
H  22 1.107448 21 108.990155 20 -109.026912 0
C  21 1.533320 20 121.102608 18 -177.462957 0
H  26 1.106651 21 108.383011 20 146.848971 0
H  26 1.113425 21 106.656732 20 -99.344596 0
C  26 1.553087 21 113.516000 20 21.429652 0
H  29 1.102926 26 109.965415 21 71.681513 0
H  29 1.103069 26 108.941758 21 -170.379257 0
C  29 1.549221 26 109.081282 21 -50.328177 0
H  32 1.102609 29 110.248300 26 -177.502831 0
H  32 1.103734 29 109.193372 26 -59.535962 0
C  20 1.561751 18 114.703643 3 137.798302 0
C  35 1.577886 20 110.937594 18 -52.658418 0
H  36 1.100547 35 112.651142 20 69.493053 0
H  36 1.100768 35 107.998379 20 -171.924589 0
H  36 1.101061 35 110.955543 20 -53.443465 0
C  35 1.582496 20 108.210224 18 66.623476 0
H  40 1.100775 35 111.034979 20 62.907825 0
H  40 1.100886 35 108.535472 20 -177.863862 0
H  40 1.100947 35 111.469038 20 -58.835131 0
$end

 
 --------------------------------------------------------------
 
                    Orbital Energies (a.u.)
 --------------------------------------------------------------
 Requested basis set is STO-3G
 There are 65 shells and 132 basis functions
 
 Alpha MOs
 -- Occupied --
******* -30.218 -26.655 -26.654 -26.653 -19.351 -19.350 -10.426
-10.422 -10.353 -10.345 -10.339 -10.325 -10.320 -10.315 -10.292
-10.290 -10.284 -10.270 -10.243 -10.239 -10.236 -10.234  -4.116
 -2.918  -2.915  -2.912  -1.441  -1.197  -1.101  -1.073  -1.037
 -1.005  -0.997  -0.956  -0.935  -0.925  -0.885  -0.880  -0.878
 -0.845  -0.810  -0.799  -0.786  -0.779  -0.766  -0.753  -0.709
 -0.702  -0.692  -0.686  -0.682  -0.674  -0.673  -0.671  -0.666
 -0.661  -0.656  -0.651  -0.649  -0.642  -0.640  -0.629  -0.626
 -0.620  -0.617  -0.615  -0.607  -0.601  -0.592  -0.583  -0.577
 -0.562  -0.555  -0.550  -0.546  -0.522  -0.510  -0.507  -0.498
 -0.474  -0.446
 -- Virtual --
 -0.414  -0.309  -0.288  -0.266  -0.249  -0.231  -0.181  -0.127
 -0.085  -0.068  -0.022   0.026   0.037   0.048   0.073   0.087
  0.099   0.102   0.111   0.112   0.124   0.134   0.149   0.150
  0.162   0.169   0.180   0.184   0.186   0.187   0.196   0.213
  0.215   0.218   0.225   0.239   0.246   0.247   0.258   0.271
  0.277   0.283   0.285   0.289   0.306   0.315   0.318   0.365
  0.384   0.413
 
 Beta MOs
 -- Occupied --
******* -30.166 -26.610 -26.609 -26.608 -19.352 -19.351 -10.426
-10.422 -10.355 -10.346 -10.341 -10.327 -10.320 -10.318 -10.292
-10.290 -10.284 -10.270 -10.244 -10.240 -10.236 -10.234  -3.841
 -2.619  -2.618  -2.617  -1.442  -1.198  -1.106  -1.079  -1.040
 -1.009  -1.001  -0.958  -0.940  -0.927  -0.887  -0.882  -0.879
 -0.848  -0.811  -0.800  -0.787  -0.780  -0.767  -0.754  -0.710
 -0.702  -0.690  -0.681  -0.676  -0.661  -0.658  -0.655  -0.645
 -0.644  -0.634  -0.627  -0.622  -0.619  -0.618  -0.609  -0.603
 -0.594  -0.585  -0.578  -0.568  -0.562  -0.553  -0.548  -0.526
 -0.512  -0.508  -0.499  -0.481  -0.479  -0.462
 -- Virtual --
 -0.307  -0.293  -0.277  -0.266  -0.263  -0.262  -0.261  -0.256
 -0.245  -0.239  -0.194  -0.139  -0.082  -0.070  -0.026   0.025
  0.035   0.047   0.067   0.084   0.097   0.098   0.109   0.110
  0.122   0.132   0.143   0.148   0.160   0.167   0.178   0.182
  0.184   0.185   0.195   0.211   0.214   0.217   0.224   0.238
  0.245   0.246   0.257   0.270   0.276   0.282   0.285   0.286
  0.305   0.313   0.318   0.362   0.379   0.410
 --------------------------------------------------------------
 
 A cutoff of  1.0D-11 yielded   1653 shell pairs
 There are      7490 function pairs (      7587 Cartesian)
 Smallest overlap matrix eigenvalue = 2.01E-01
          Ground-State Mulliken Net Atomic Charges

     Atom                 Charge (a.u.)    Spin (a.u.)
  --------------------------------------------------------
      1 Fe                    0.608145       4.922106
      2 H                     0.126835      -0.017326
      3 H                     0.135296      -0.007717
      4 H                     0.119195      -0.005064
      5 C                    -0.138449       0.003849
      6 C                    -0.237373       0.008562
      7 H                     0.113809      -0.000176
      8 H                     0.125704      -0.011229
      9 C                    -0.131725      -0.004081
     10 C                     0.091113      -0.175009
     11 H                     0.086718      -0.000652
     12 H                     0.091171      -0.000418
     13 C                    -0.133173      -0.001629
     14 H                     0.087905      -0.000099
     15 C                     0.024705      -0.197238
     16 H                     0.104640      -0.000121
     17 O                    -0.063611      -0.022196
     18 H                     0.091095       0.000004
     19 C                     0.029893       0.001725
     20 C                    -0.220637      -0.013841
     21 C                     0.030075       0.014649
     22 H                     0.148055      -0.000303
     23 O                    -0.073183      -0.019628
     24 C                     0.031880       0.009912
     25 H                     0.113646      -0.000832
     26 C                    -0.218649      -0.023186
     27 H                     0.090681       0.000447
     28 H                     0.069151       0.000631
     29 H                     0.133605      -0.002622
     30 H                     0.112770      -0.001621
     31 C                     0.044551      -0.154499
     32 H                     0.063979       0.000891
     33 C                    -0.225327       0.005925
     34 H                     0.093840       0.002066
     35 C                    -0.032152      -0.043933
     36 C                    -0.038099      -0.011417
     37 H                     0.135849       0.000599
     38 H                     0.131813       0.011600
     39 C                    -0.049594      -0.262466
     40 H                     0.159288       0.011731
     41 H                     0.120271      -0.000221
     42 H                     0.120569      -0.007879
     43 H                     0.125108      -0.009518
  --------------------------------------------------------
  Sum of atomic charges =     1.999381
  Sum of spin   charges =     3.999779

 -----------------------------------------------------------------
                    Cartesian Multipole Moments
 -----------------------------------------------------------------
    Charge (ESU x 10^10)
                 9.6034
    Dipole Moment (Debye)
         X       4.9113      Y      -2.3179      Z       0.7049
       Tot       5.4764
    Quadrupole Moments (Debye-Ang)
        XX     -48.0771     XY     -22.3923     YY     -70.9591
        XZ      -5.8153     YZ       2.2292     ZZ     -98.3559
    Octopole Moments (Debye-Ang^2)
       XXX      71.1119    XXY     -32.0222    XYY     118.8121
       YYY      -6.0254    XXZ     -18.8376    XYZ      -5.6142
       YYZ       2.3388    XZZ      23.7463    YZZ       6.8559
       ZZZ      21.9811
    Hexadecapole Moments (Debye-Ang^3)
      XXXX   -4052.2836   XXXY     -15.2178   XXYY    -719.0227
      XYYY     -29.3220   YYYY   -1871.0687   XXXZ     -98.9715
      XXYZ      98.9327   XYYZ     -65.5943   YYYZ      17.6461
      XXZZ    -917.8655   XYZZ      66.1905   YYZZ    -515.1285
      XZZZ      -8.6555   YZZZ     -18.5658   ZZZZ   -1086.5244
 -----------------------------------------------------------------
Archival summary:
1\1\cub-0-6.local\TS\ProcedureUnspecified\STO-3G\e121624(2+,5)\c295_lal\WedNov2808:53:092018WedNov2808:53:092018\0\\#,TS,ProcedureUnspecified,STO-3G,\\2,5\Fe\O,1,2.12705\O,2,1.50469,1,71.1287\C,2,1.55318,1,137.64,3,71.5073,0\H,4,1.11251,2,106.078,1,-168.8,0\C,4,1.52417,2,115.986,1,67.8198,0\C,6,1.39432,4,120.939,2,-56.4663,0\H,7,1.10541,6,119.06,4,-2.08973,0\C,7,1.45527,6,125.355,4,178.104,0\H,9,1.10115,7,118.786,6,-1.9216,0\C,9,1.38138,7,121.999,6,178.148,0\H,11,1.10437,9,122.076,7,0.30937,0\H,11,1.1048,9,120.939,7,-179.484,0\C,6,1.53169,4,114.263,2,124.737,0\H,14,1.09817,6,111.981,4,176.482,0\H,14,1.106,6,110.041,4,55.7326,0\H,14,1.10666,6,109.877,4,-62.3783,0\C,3,1.55864,2,91.7641,1,132.819,0\H,18,1.11027,3,108.413,2,-104.827,0\C,18,1.52307,3,115.009,2,130.388,0\C,20,1.41037,18,121.914,3,-45.634,0\C,21,1.53302,20,125,18,2.98254,0\H,22,1.09646,21,113.682,20,13.6524,0\H,22,1.10467,21,108.803,20,135.304,0\H,22,1.10745,21,108.99,20,-109.027,0\C,21,1.53332,20,121.103,18,-177.463,0\H,26,1.10665,21,108.383,20,146.849,0\H,26,1.11343,21,106.657,20,-99.3446,0\C,26,1.55309,21,113.516,20,21.4297,0\H,29,1.10293,26,109.965,21,71.6815,0\H,29,1.10307,26,108.942,21,-170.379,0\C,29,1.54922,26,109.081,21,-50.3282,0\H,32,1.10261,29,110.248,26,-177.503,0\H,32,1.10373,29,109.193,26,-59.536,0\C,20,1.56175,18,114.704,3,137.798,0\C,35,1.57789,20,110.938,18,-52.6584,0\H,36,1.10055,35,112.651,20,69.4931,0\H,36,1.10077,35,107.998,20,-171.925,0\H,36,1.10106,35,110.956,20,-53.4435,0\C,35,1.5825,20,108.21,18,66.6235,0\H,40,1.10077,35,111.035,20,62.9078,0\H,40,1.10089,35,108.535,20,-177.864,0\H,40,1.10095,35,111.469,20,-58.8351,0\\\@

 Total job time:  399.16s(wall), 4754.70s(cpu) 
 Wed Nov 28 08:53:09 2018

        *************************************************************
        *                                                           *
        *  Thank you very much for using Q-Chem.  Have a nice day.  *
        *                                                           *
        *************************************************************


