
Running Job 1 of 2 int_ts_rpath.in
qchem int_ts_rpath.in_4555.0 /scr/c295_lal/157479/qchem4555/ 1
/usr/software/qchem_511/exe/qcprog.exe_s int_ts_rpath.in_4555.0 /scr/c295_lal/157479/qchem4555/
Check license passed

                  Welcome to Q-Chem
     A Quantum Leap Into The Future Of Chemistry


 Q-Chem 5.1, Q-Chem, Inc., Pleasanton, CA (2018)

 Yihan Shao,  Zhengting Gan,  E. Epifanovsky,  A. T. B. Gilbert,  M. Wormit,  
 J. Kussmann,  A. W. Lange,  A. Behn,  Jia Deng,  Xintian Feng,  D. Ghosh,  
 M. Goldey,  P. R. Horn,  L. D. Jacobson,  I. Kaliman,  T. Kus,  A. Landau,  
 Jie Liu,  E. I. Proynov,  R. M. Richard,  R. P. Steele,  E. J. Sundstrom,  
 H. L. Woodcock III,  P. M. Zimmerman,  D. Zuev,  B. Albrecht,  E. Alguire,  
 S. A. Baeppler,  D. Barton,  Z. Benda,  Y. A. Bernard,  E. J. Berquist,  
 K. B. Bravaya,  H. Burton,  D. Casanova,  Chun-Min Chang,  Yunqing Chen,  
 A. Chien,  K. D. Closser,  M. P. Coons,  S. Coriani,  S. Dasgupta,  
 A. L. Dempwolff,  M. Diedenhofen,  Hainam Do,  R. G. Edgar,  Po-Tung Fang,  
 S. Faraji,  S. Fatehi,  Qingguo Feng,  K. D. Fenk,  J. Fosso-Tande,  
 Qinghui Ge,  A. Ghysels,  G. Gidofalvi,  J. Gomes,  J. Gonthier,  A. Gunina,  
 D. Hait,  M. W. D. Hanson-Heine,  P. H. P. Harbach,  A. W. Hauser,  
 J. E. Herr,  E. G. Hohenstein,  Z. C. Holden,  Kerwin Hui,  B. C. Huynh,  
 T.-C. Jagau,  Hyunjun Ji,  B. Kaduk,  K. Khistyaev,  Jaehoon Kim,  
 P. Klunzinger,  K. Koh,  D. Kosenkov,  L. Koulias,  T. Kowalczyk,  
 C. M. Krauter,  A. Kunitsa,  Ka Un Lao,  A. Laurent,  K. V. Lawler,  
 Joonho Lee,  D. Lefrancois,  S. Lehtola,  D. S. Levine,  Yi-Pei Li,  
 You-Sheng Lin,  Fenglai Liu,  E. Livshits,  A. Luenser,  P. Manohar,  
 E. Mansoor,  S. F. Manzer,  Shan-Ping Mao,  Yuezhi Mao,  N. Mardirossian,  
 A. V. Marenich,  T. Markovich,  L. A. Martinez-Martinez,  S. A. Maurer,  
 N. J. Mayhall,  S. C. McKenzie,  J.-M. Mewes,  A. F. Morrison,  
 J. W. Mullinax,  K. Nanda,  T. S. Nguyen-Beck,  R. Olivares-Amaya,  
 J. A. Parkhill,  T. M. Perrine,  F. Plasser,  P. Pokhilko,  S. Prager,  
 A. Prociuk,  E. Ramos,  D. R. Rehn,  F. Rob,  M. Schneider,  N. Sergueev,  
 S. M. Sharada,  S. Sharma,  D. W. Small,  T. Stauch,  T. Stein,  
 Yu-Chuan Su,  A. J. W. Thom,  A. Tkatchenko,  T. Tsuchimochi,  N. M. Tubman,  
 L. Vogt,  M. L. Vidal,  O. Vydrov,  M. A. Watson,  J. Wenzel,  
 M. de Wergifosse,  T. A. Wesolowski,  A. White,  J. Witte,  A. Yamada,  
 Jun Yang,  K. Yao,  S. Yeganeh,  S. R. Yost,  Zhi-Qiang You,  A. Zech,  
 Igor Ying Zhang,  Xing Zhang,  Yan Zhao,  Ying Zhu,  B. R. Brooks,  
 G. K. L. Chan,  C. J. Cramer,  M. S. Gordon,  W. J. Hehre,  A. Klamt,  
 M. W. Schmidt,  C. D. Sherrill,  D. G. Truhlar,  A. Aspuru-Guzik,  R. Baer,  
 A. T. Bell,  N. A. Besley,  Jeng-Da Chai,  A. E. DePrince, III,  
 R. A. DiStasio Jr.,  A. Dreuw,  B. D. Dunietz,  T. R. Furlani,  
 Chao-Ping Hsu,  Yousung Jung,  Jing Kong,  D. S. Lambrecht,  WanZhen Liang,  
 C. Ochsenfeld,  V. A. Rassolov,  L. V. Slipchenko,  J. E. Subotnik,  
 T. Van Voorhis,  J. M. Herbert,  A. I. Krylov,  P. M. W. Gill,  M. Head-Gordon

 Contributors to earlier versions of Q-Chem not listed above: 
 R. D. Adamson,  B. Austin,  J. Baker,  G. J. O. Beran,  K. Brandhorst,  
 S. T. Brown,  E. F. C. Byrd,  A. K. Chakraborty,  C.-L. Cheng,  
 Siu Hung Chien,  D. M. Chipman,  D. L. Crittenden,  H. Dachsel,  
 R. J. Doerksen,  A. D. Dutoi,  L. Fusti-Molnar,  W. A. Goddard III,  
 A. Golubeva-Zadorozhnaya,  S. R. Gwaltney,  G. Hawkins,  A. Heyden,  
 S. Hirata,  G. Kedziora,  F. J. Keil,  C. Kelley,  Jihan Kim,  R. A. King,  
 R. Z. Khaliullin,  P. P. Korambath,  W. Kurlancheek,  A. M. Lee,  M. S. Lee,  
 S. V. Levchenko,  Ching Yeh Lin,  D. Liotard,  R. C. Lochan,  I. Lotan,  
 P. E. Maslen,  N. Nair,  D. P. O'Neill,  D. Neuhauser,  E. Neuscamman,  
 C. M. Oana,  R. Olson,  B. Peters,  R. Peverati,  P. A. Pieniazek,  
 Y. M. Rhee,  J. Ritchie,  M. A. Rohrdanz,  E. Rosta,  N. J. Russ,  
 H. F. Schaefer III,  N. E. Schultz,  N. Shenvi,  A. C. Simmonett,  A. Sodt,  
 D. Stuck,  K. S. Thanthiriwatte,  V. Vanovschi,  Tao Wang,  A. Warshel,  
 C. F. Williams,  Q. Wu,  X. Xu,  W. Zhang

 Please cite Q-Chem as follows:
 Y. Shao et al., Mol. Phys. 113, 184-215 (2015)
 DOI: 10.1080/00268976.2014.952696

 Q-Chem 5.1.1 for Intel X86 EM64T Linux

 Parts of Q-Chem use Armadillo 8.300.2 (Tropical Shenanigans).
 http://arma.sourceforge.net/

 Q-Chem begins on Wed Nov 28 13:34:00 2018  

Host: cub-0-15.local
0

     Scratch files written to /scr/c295_lal/157479/qchem4555//
 Aug318 |scratch|qcdevops|jenkins|workspace|build_RNUM -1
Processing $rem in /usr/software/qchem_511/config/preferences.
 MEM_TOTAL  2000 
Input Ideriv = 2
Curr. Ideriv = -1
Max.  Ideriv = 2

Checking the input file for inconsistencies... 	...done.

--------------------------------------------------------------
User input:
--------------------------------------------------------------
$molecule
2 5
Fe        -1.48203       -2.97884        2.14400
O         -1.78534       -1.64464        1.38236
O         -1.47820       -0.25246        1.75386
H          2.30879        2.78091       -0.17997
H          2.60051        2.98392        1.58294
C          2.00753        2.43039        0.82753
H          0.94117        2.68837        0.97989
H          4.29572        1.86721       -0.75950
H          4.31019        1.30948        1.74628
C          4.48933        0.83559       -0.39729
C          2.28123        0.87499        1.01127
C          3.85000        0.61673        1.01083
H          5.59065        0.69678       -0.34829
H         -2.66904       -1.15803       -0.81904
H          2.29230        0.90844        3.21769
C          1.73933        0.37465        2.41894
C          1.58824        0.04611       -0.16164
H          4.01465        0.13162       -2.47143
H          0.66049        0.57421        2.55929
C          3.89834       -0.20280       -1.40519
C          0.18752       -0.12829       -0.30077
C         -2.79885       -0.15173       -1.27137
C          2.41895       -0.56730       -1.22519
H         -2.32176       -0.15600       -2.27793
H          0.86112       -1.53219       -2.51330
H         -3.88264        0.02813       -1.41334
H          4.05271       -0.42144        1.35435
C          1.91985       -1.64962       -2.20746
H          2.02124       -2.64231       -1.69920
C         -0.93709        0.57554        0.47482
H          1.92332       -0.71221        2.54074
H          4.45992       -1.17660       -1.36549
C         -2.17671        0.93220       -0.36419
H          2.56536       -1.67035       -3.10970
H         -4.44146        2.10524       -1.59469
C         -2.70854        2.22602       -0.20293
C         -3.89072        2.75735       -0.88749
H         -2.19186        2.92503        0.49066
C         -4.33511        4.05548       -0.66966
H         -5.23514        4.44956       -1.18833
H         -3.81157        4.74378        0.02806
H         -0.18126       -0.74128       -1.14935
H         -0.56025        1.46656        1.03528
$end

$rem
JOBTYPE    freq
BASIS      sto-3g
METHOD     BLYP
$end

--------------------------------------------------------------
 ----------------------------------------------------------------
             Standard Nuclear Orientation (Angstroms)
    I     Atom           X                Y                Z
 ----------------------------------------------------------------
    1      Fe     -1.2201092814    -3.5930050832     0.2638873145
    2      O      -1.6297200978    -2.0906326326     0.0987265305
    3      O      -1.4904750225    -0.9635013677     1.0371818053
    4      H       2.0336561361     2.8877742977     0.8625375628
    5      H       2.2219328076     2.3544457903     2.5696631835
    6      C       1.7263843253     2.1244192100     1.6052024619
    7      H       0.6327437812     2.2102369121     1.7584231584
    8      H       4.1311365691     2.4603554286     0.1300879197
    9      H       4.0918658795     0.9056333527     2.1725135908
   10      C       4.4174706699     1.3906266237     0.0487626016
   11      C       2.1564007024     0.6621968985     1.1525071287
   12      C       3.7422063795     0.5517362113     1.1800121307
   13      H       5.5239714015     1.3308179912     0.1303347585
   14      H      -2.4599463408    -0.7960491203    -1.7717426238
   15      H       2.0640168482    -0.2325623061     3.1675510124
   16      C       1.6080547905    -0.4234166619     2.1753905595
   17      C       1.6098755299     0.3505284754    -0.3128147105
   18      H       4.1151705288     1.5871997471    -2.1632331567
   19      H       0.5088149553    -0.3863666756     2.2925107749
   20      C       3.9872157387     0.8282445503    -1.3447913012
   21      C       0.2436038323     0.1414637792    -0.6312211119
   22      C      -2.6761262992     0.2935977129    -1.7771053975
   23      C       2.5487196111     0.3071916179    -1.4591930261
   24      H      -2.1562833798     0.7494935361    -2.6504429452
   25      H       1.1629812448    -0.1468845436    -3.1593749025
   26      H      -3.7654044130     0.4309143905    -1.9244932720
   27      H       4.0391252786    -0.5153600528     1.0798172505
   28      C       2.2132749608    -0.2984729143    -2.8397795342
   29      H       2.3972409309    -1.4015083922    -2.7805270904
   30      C      -0.9838026854     0.3643794436     0.2662453310
   31      H       1.9016206162    -1.4429703868     1.8524640543
   32      H       4.6474259204    -0.0250351573    -1.6630221654
   33      C      -2.2152510564     0.9418673220    -0.4533688295
   34      H       2.8974402844     0.1119568513    -3.6108924495
   35      H      -4.5345583511     2.3415838024    -1.2785070611
   36      C      -2.8892555077     2.0025462501     0.1818447882
   37      C      -4.0893345901     2.6776782390    -0.3206395484
   38      H      -2.4822653385     2.3840955672     1.1438320082
   39      C      -4.6795113984     3.7253666604     0.3751435964
   40      H      -5.5921646852     4.2288745148    -0.0094541608
   41      H      -4.2647481656     4.0960351946     1.3370378309
   42      H      -0.0186849572    -0.0856718638    -1.6854779285
   43      H      -0.7302352916     0.9644747790     1.1748869560
 ----------------------------------------------------------------
 Molecular Point Group                 C1    NOp =  1
 Largest Abelian Subgroup              C1    NOp =  1
 Nuclear Repulsion Energy =  1730.0141657018 hartrees
 There are       82 alpha and       78 beta electrons
 Requested basis set is STO-3G
 There are 65 shells and 132 basis functions

 Total QAlloc Memory Limit   2000 MB
 Mega-Array Size       204 MB
 MEM_STATIC part       192 MB
 A cutoff of  1.0D-11 yielded   1574 shell pairs
 There are      7077 function pairs (      7164 Cartesian)
 
 -------------------------------------------------------
 OpenMP Integral Computing Module                       
 Release: version 1.0, May 2013, Q-Chem Inc. Pittsburgh 
 -------------------------------------------------------
 Integral Job Info:
 Integral job number is                      11
 Integral operator is                         1
 short-range coefficients                     0
 long-range coefficients              100000000
 Omega coefficients                           0
 if combine SR and LR in K                    0
 Integral screening is                        0
 Integral computing path is                   2
 max size of driver memory is            800000
 size of driver memory is                593474
 size of scratch memory is             10861360
 max col of scratch BK array               1296
 max len of scratch array in speh3          155
 max len of scratch index in speh4           18
 max int batch size is                      520
 min int batch size is                       52
 fixed nKL is                                52
 max L of basis functions is                  2
 order of int derivative is                   0
 number of shells is                         65
 number of basis is                         133
 number of cartesian basis is               133
 number of contracted shell pairs          1574
 number of primitive shell pairs           8182
 maxK2 (contraction) of shell pair            9
 max number of K2 of shell pair               1
 max number of CS2 of shell pair            233
 max number of PS2 of shell pair            858
 mem total for path MDJ                  533918
 -------------------------------------------------------
 Smallest overlap matrix eigenvalue = 2.07E-01
 Guess from superposition of atomic densities
 Warning:  Energy on first SCF cycle will be non-variational
 SAD guess density has 162.000000 electrons

 -----------------------------------------------------------------------
  General SCF calculation program by
  Eric Jon Sundstrom, Paul Horn, Yuezhi Mao, Dmitri Zuev, Alec White,
  David Stuck, Shaama M.S., Shane Yost, Joonho Lee, David Small,
  Daniel Levine, Susi Lehtola, Hugh Burton, Evgeny Epifanovsky
 -----------------------------------------------------------------------
 Exchange:  B88      Correlation:  LYP
 Using SG-1 standard quadrature grid
 using 12 threads for integral computing
 -------------------------------------------------------
 OpenMP Integral computing Module                
 Release: version 1.0, May 2013, Q-Chem Inc. Pittsburgh 
 -------------------------------------------------------
 -------------------------------------------------------
 OpenMP BLAS3 based DFT computing Module                
 Release: version 1.0, May 2013, Q-Chem Inc. Pittsburgh 
 -------------------------------------------------------
 A unrestricted SCF calculation will be
 performed using DIIS
 SCF converges when DIIS error is below 1.0e-08
 ---------------------------------------
  Cycle       Energy         DIIS error
 ---------------------------------------
    1   -2011.7851835223      3.86e-02  
    2   -2013.1938046115      8.93e-03  
    3   -1996.2780790696      2.24e-02  
    4   -1999.5732949718      1.67e-02  
    5   -2010.5691764292      1.10e-02  
    6   -2008.0280940999      1.78e-02  
    7   -2010.7278499891      1.22e-02  
    8   -2007.8031104179      2.02e-02  
    9   -2007.5834416549      2.04e-02  
   10   -2006.4829330840      2.08e-02  
   11   -2005.9289123114      2.04e-02  
   12   -2004.9172802110      1.91e-02  
   13   -2004.9959879210      1.91e-02  
   14   -2005.3367229229      1.94e-02  
   15   -2005.3263706132      1.96e-02  
   16   -2006.1909835026      2.03e-02  
   17   -2006.0764464084      2.02e-02  
   18   -2012.9714468295      9.00e-03  
   19   -2009.0093827826      1.77e-02  
   20   -2013.8753089028      2.70e-03  
   21   -2012.8479207675      7.45e-03  
   22   -2013.9426847236      1.83e-03  
   23   -2013.9486903329      1.28e-03  
   24   -2013.9652493388      8.83e-04  
   25   -2013.9858479302      3.99e-04  
   26   -2013.9880943072      2.13e-04  
   27   -2013.9887675296      1.32e-04  
   28   -2013.9889853129      7.11e-05  
   29   -2013.9890626445      4.49e-05  
   30   -2013.9890815131      3.38e-05  
   31   -2013.9891097772      8.04e-06  
   32   -2013.9891109527      3.11e-06  
   33   -2013.9891110724      2.28e-06  
   34   -2013.9891111350      1.40e-06  
   35   -2013.9891111846      5.27e-07  
   36   -2013.9891111865      5.35e-07  
   37   -2013.9891111918      1.57e-07  
   38   -2013.9891111923      7.47e-08  
   39   -2013.9891111924      3.85e-08  
   40   -2013.9891111925      1.81e-08  
   41   -2013.9891111925      1.36e-08  
   42   -2013.9891111925      4.13e-09  Convergence criterion met
 ---------------------------------------
 SCF time:   CPU 298.74s  wall 25.00s 
<S^2> =          6.384274057
 SCF   energy in the final basis set =    -2013.9891111925
 Total energy in the final basis set =    -2013.9891111925
 
 --------------------------------------------------------------
 
                    Orbital Energies (a.u.)
 --------------------------------------------------------------
 
 Alpha MOs
 -- Occupied --
******* -29.654 -26.209 -26.207 -26.202 -18.970 -18.951 -10.121
-10.118 -10.091 -10.076 -10.052 -10.043 -10.042 -10.036 -10.032
-10.022 -10.016 -10.016  -9.988  -9.980  -9.980  -9.978  -3.842
 -2.684  -2.680  -2.672  -1.265  -1.078  -1.007  -0.968  -0.937
 -0.920  -0.901  -0.872  -0.854  -0.834  -0.817  -0.805  -0.789
 -0.743  -0.736  -0.725  -0.702  -0.690  -0.678  -0.649  -0.643
 -0.634  -0.627  -0.620  -0.607  -0.602  -0.594  -0.583  -0.578
 -0.576  -0.571  -0.566  -0.565  -0.558  -0.554  -0.549  -0.541
 -0.537  -0.532  -0.516  -0.513  -0.510  -0.510  -0.507  -0.500
 -0.499  -0.488  -0.482  -0.478  -0.472  -0.463  -0.456  -0.450
 -0.418  -0.396
 -- Virtual --
 -0.377  -0.372  -0.293  -0.259  -0.249  -0.225  -0.213  -0.145
 -0.118  -0.045  -0.028  -0.022   0.006   0.013   0.022   0.027
  0.050   0.058   0.065   0.073   0.079   0.087   0.089   0.102
  0.110   0.117   0.124   0.128   0.134   0.140   0.148   0.152
  0.167   0.169   0.178   0.182   0.188   0.193   0.202   0.208
  0.221   0.226   0.237   0.242   0.248   0.259   0.271   0.283
  0.330   0.370
 
 Beta MOs
 -- Occupied --
******* -29.617 -26.177 -26.176 -26.175 -18.970 -18.953 -10.120
-10.118 -10.091 -10.076 -10.053 -10.043 -10.042 -10.036 -10.032
-10.022 -10.018 -10.016  -9.988  -9.980  -9.980  -9.978  -3.646
 -2.499  -2.477  -2.473  -1.266  -1.078  -1.007  -0.970  -0.937
 -0.920  -0.903  -0.872  -0.853  -0.836  -0.817  -0.805  -0.789
 -0.741  -0.737  -0.725  -0.701  -0.688  -0.677  -0.649  -0.641
 -0.633  -0.623  -0.620  -0.607  -0.595  -0.593  -0.579  -0.578
 -0.575  -0.570  -0.566  -0.565  -0.558  -0.551  -0.542  -0.541
 -0.533  -0.523  -0.516  -0.512  -0.505  -0.500  -0.483  -0.478
 -0.471  -0.462  -0.456  -0.443  -0.427  -0.401
 -- Virtual --
 -0.372  -0.337  -0.309  -0.309  -0.306  -0.303  -0.278  -0.266
 -0.231  -0.225  -0.198  -0.149  -0.121  -0.030  -0.021  -0.013
  0.007   0.014   0.023   0.026   0.050   0.058   0.065   0.072
  0.078   0.087   0.089   0.101   0.109   0.117   0.121   0.129
  0.134   0.140   0.147   0.152   0.167   0.169   0.178   0.182
  0.188   0.193   0.202   0.208   0.220   0.226   0.235   0.242
  0.248   0.259   0.272   0.283   0.328   0.368
 --------------------------------------------------------------
 
          Ground-State Mulliken Net Atomic Charges

     Atom                 Charge (a.u.)    Spin (a.u.)
  --------------------------------------------------------
      1 Fe                    0.635513       4.382064
      2 O                    -0.189967      -0.121172
      3 O                     0.047931      -0.014866
      4 H                     0.089489      -0.000018
      5 H                     0.108590      -0.000015
      6 C                    -0.213067       0.000437
      7 H                     0.069248      -0.000012
      8 H                     0.097431      -0.000015
      9 H                     0.105586       0.000016
     10 C                    -0.129795       0.000059
     11 C                     0.029694       0.000090
     12 C                    -0.130300      -0.000152
     13 H                     0.115306      -0.000030
     14 H                     0.091795      -0.002492
     15 H                     0.109675      -0.000138
     16 C                    -0.215710      -0.000571
     17 C                     0.021928      -0.002506
     18 H                     0.141120       0.001062
     19 H                     0.067318       0.000054
     20 C                    -0.133688      -0.002090
     21 C                    -0.011849       0.015659
     22 C                    -0.223801       0.002794
     23 C                     0.142433       0.036209
     24 H                     0.111951      -0.007506
     25 H                     0.114245       0.000639
     26 H                     0.119299      -0.000588
     27 H                     0.084305      -0.000029
     28 C                    -0.222648      -0.002276
     29 H                     0.139256       0.001559
     30 C                     0.001121       0.018543
     31 H                     0.081134       0.000023
     32 H                     0.140690       0.002107
     33 C                     0.032696      -0.104851
     34 H                     0.136802       0.000363
     35 H                     0.121988       0.000702
     36 C                    -0.027567      -0.044545
     37 C                    -0.043656      -0.015193
     38 H                     0.113285       0.001890
     39 C                    -0.057370      -0.159406
     40 H                     0.145211       0.006711
     41 H                     0.129644       0.006633
     42 H                     0.119496      -0.000519
     43 H                     0.135237       0.001374
  --------------------------------------------------------
  Sum of atomic charges =     2.000000
  Sum of spin   charges =     4.000000

 -----------------------------------------------------------------
                    Cartesian Multipole Moments
 -----------------------------------------------------------------
    Charge (ESU x 10^10)
                 9.6064
    Dipole Moment (Debye)
         X      -2.1945      Y       0.3243      Z      -3.5068
       Tot       4.1495
    Quadrupole Moments (Debye-Ang)
        XX     -31.9821     XY     -10.1410     YY     -61.3839
        XZ      -9.3040     YZ       2.0101     ZZ     -93.4483
    Octopole Moments (Debye-Ang^2)
       XXX     -65.3918    XXY     122.4485    XYY    -138.8222
       YYY     -76.4271    XXZ     -40.8007    XYZ      -3.5114
       YYZ      19.2630    XZZ      23.2613    YZZ      -8.4471
       ZZZ     -20.3521
    Hexadecapole Moments (Debye-Ang^3)
      XXXX   -3657.8318   XXXY    -432.3294   XXYY    -721.5993
      XYYY    -116.6137   YYYY   -2147.4440   XXXZ    -102.2851
      XXYZ       7.3204   XYYZ     -57.6727   YYYZ      15.7671
      XXZZ    -885.1096   XYZZ      23.2794   YYZZ    -639.8678
      XZZZ     -65.2444   YZZZ      -4.2022   ZZZZ   -1131.3427
 -----------------------------------------------------------------
 Calculating MO derivatives via CPSCF
 D1JvT checksum  = 1175964 10494.1524254806
 D1KAT checksum  = 3019632 589.2995369768
   1         3         129      0.900316    0.270229
   2         3         129      0.044057    0.024934
   3        92          40      0.001957    0.000926
   4       125           7      0.000121    0.000066
   5       129           3      0.000011    0.000006
   6       132           0      0.000000    0.000000    Roots Converged
 Time for AOints: 21.1 s (CPU) 2.1 s (wall)
 ------------------------------------------------------------------------------
                     AOints        : Timing summary (seconds)
 ------------------------------------------------------------------------------
     job step          cpu (% of tot)      sys (% of tot)     wall (% of tot)
 ------------------------------------------------------------------------------
  cpscf_lag         0.6379E+04 (84.6)   0.9230E-01 (98.6)   0.5798E+03 (83.0)
  iterzp            0.1143E+04 (15.2)   0.1261E-02 ( 1.3)   0.1152E+03 (16.5)
  make_fx           0.0000E+00 ( 0.0)   0.0000E+00 ( 0.0)   0.0000E+00 ( 0.0)
  AOints            0.2109E+02 ( 0.3)   0.5300E-04 ( 0.1)   0.2124E+01 ( 0.3)
 ------------------------------------------------------------------------------
   Grand Totals     0.7545E+04          0.9363E-01          0.6982E+03
 ------------------------------------------------------------------------------
 Calculating analytic Hessian of the SCF energy
 Polarizability Matrix (a.u.)
            1           2           3
    1-357.7866403  82.4375127  28.9282633
    2  82.4375127-387.5116817   2.3603570
    3  28.9282633   2.3603570-140.8200278
 
 Direct stationary perturbation theory relativistic correction:
 
 rels  =       4.816568309603
 relv  =     -16.256256337464
 rel2e =       0.000000000000
 E_rel =     -11.439688027861
 
 Hessian of the SCF Energy
            1           2           3           4           5           6
    1   0.0196817  -0.0866897   0.0089359  -0.0222776   0.0713095  -0.0161963
    2  -0.0866897   0.3193607  -0.0226261   0.0876278  -0.2627538   0.0491630
    3   0.0089359  -0.0226261   0.0037402  -0.0095432   0.0242213  -0.0040396
    4  -0.0222776   0.0876278  -0.0095432   0.0358241  -0.0460887   0.0289141
    5   0.0713095  -0.2627538   0.0242213  -0.0460887   0.4131401   0.0799600
    6  -0.0161963   0.0491630  -0.0040396   0.0289141   0.0799600   0.1347399
    7   0.0014126  -0.0011973   0.0034211  -0.0072118  -0.0137267  -0.0045616
    8   0.0153349  -0.0479239  -0.0006015  -0.0343516  -0.1174561  -0.1214495
    9   0.0080918  -0.0331441  -0.0006778  -0.0087106  -0.0942920  -0.1544031
   10  -0.0000272   0.0000563  -0.0000017  -0.0000264  -0.0001092  -0.0000192
   11   0.0000395   0.0000426   0.0000684  -0.0000072   0.0000576  -0.0000330
   12   0.0000138   0.0000127   0.0000116  -0.0000059   0.0000052  -0.0000005
   13  -0.0000415   0.0000710  -0.0000070  -0.0000195  -0.0002272  -0.0000551
   14   0.0000038  -0.0000733  -0.0000561   0.0000470   0.0001106   0.0000419
   15  -0.0000048  -0.0000415  -0.0000002   0.0000183   0.0000780   0.0000307
   16   0.0001409  -0.0002621  -0.0000212   0.0000527   0.0006655   0.0001496
   17  -0.0000587   0.0002140   0.0000719  -0.0000805  -0.0004791  -0.0001568
   18  -0.0000929  -0.0000884  -0.0002167   0.0000800  -0.0001076   0.0000613
   19  -0.0000404   0.0002365  -0.0000073  -0.0001301  -0.0005490  -0.0000862
   20   0.0000081  -0.0000600  -0.0000002   0.0000371   0.0000527   0.0000274
   21   0.0000157  -0.0000122   0.0000403   0.0000042   0.0000903   0.0000008
   22  -0.0000092   0.0000199   0.0000056   0.0000115  -0.0000112  -0.0000069
   23  -0.0000207   0.0000795   0.0000313   0.0000086  -0.0000679  -0.0000325
   24  -0.0000030  -0.0000761  -0.0000307   0.0000037   0.0000320   0.0000178
   25  -0.0000063  -0.0000056  -0.0000204   0.0000125   0.0000065   0.0000201
   26  -0.0000057   0.0000190  -0.0000006   0.0000026  -0.0000216  -0.0000054
   27  -0.0000047  -0.0000396  -0.0000147   0.0000130   0.0000206   0.0000049
   28   0.0000537  -0.0000009   0.0000439  -0.0000660   0.0000887   0.0000054
   29   0.0000115  -0.0001330  -0.0000363  -0.0000026   0.0000792   0.0000354
   30   0.0000047   0.0002264   0.0000781  -0.0000189  -0.0001120  -0.0000569
   31  -0.0000832   0.0000457   0.0001437  -0.0000814  -0.0001624  -0.0001115
   32   0.0000178   0.0002058  -0.0000602   0.0000731   0.0001206   0.0001497
   33   0.0001702   0.0004748   0.0004031  -0.0003276  -0.0001282  -0.0001785
   34  -0.0000704  -0.0000253  -0.0000329   0.0000675  -0.0001562  -0.0000746
   35   0.0000585  -0.0001054   0.0000244  -0.0000366   0.0002054   0.0000179
   36  -0.0000384  -0.0001529  -0.0001385   0.0000739   0.0000194   0.0000884
   37  -0.0000109   0.0000601   0.0000198  -0.0000015  -0.0000360  -0.0000119
   38   0.0000096  -0.0000143   0.0000031  -0.0000093   0.0000306   0.0000069
   39  -0.0000181  -0.0000995  -0.0000494   0.0000340   0.0000213   0.0000171
   40   0.0000357   0.0014331  -0.0001788  -0.0003680  -0.0006507   0.0011659
   41   0.0007166  -0.0026719   0.0004544  -0.0005330   0.0015484  -0.0015015
   42  -0.0004862   0.0021766  -0.0002697   0.0007663  -0.0013963   0.0020447
   43   0.0000899  -0.0000082   0.0000390  -0.0001075   0.0002252   0.0000709
   44   0.0001597   0.0001004   0.0001004  -0.0000507   0.0001025  -0.0000056
   45  -0.0000764   0.0000024  -0.0000529   0.0000975  -0.0000777   0.0000342
   46   0.0001277   0.0000008  -0.0000548   0.0001608   0.0001028   0.0002107
   47  -0.0001602  -0.0005543  -0.0001668  -0.0000933   0.0004672   0.0001282
   48   0.0001639  -0.0003325  -0.0000596  -0.0001481   0.0006869   0.0002561
   49   0.0006027  -0.0022567  -0.0006041   0.0002930   0.0027831   0.0000262
   50  -0.0004687  -0.0012169   0.0001101  -0.0000675  -0.0006245  -0.0003159
   51  -0.0001552   0.0021667   0.0006582  -0.0002942  -0.0020637  -0.0008669
   52   0.0000120   0.0000863   0.0000004   0.0000094  -0.0000013   0.0000054
   53  -0.0000256   0.0000190   0.0000155  -0.0000030  -0.0000412  -0.0000078
   54   0.0000895  -0.0004047  -0.0001499   0.0000323   0.0003232   0.0001172
   55   0.0002389  -0.0007226   0.0000584   0.0000169   0.0004383   0.0000684
   56  -0.0001878   0.0000086  -0.0002282   0.0001466  -0.0008032  -0.0002270
   57  -0.0001582  -0.0002814  -0.0000542   0.0002579  -0.0003585  -0.0002119
   58   0.0001477  -0.0008503  -0.0002506   0.0000254   0.0006071   0.0002086
   59   0.0001355   0.0010779   0.0001350  -0.0000318  -0.0001253  -0.0000415
   60  -0.0002403   0.0008992   0.0003411  -0.0000923  -0.0007973  -0.0003176
   61   0.0000946   0.0034961   0.0011504  -0.0005344   0.0014968   0.0038651
   62   0.0005995   0.0032859  -0.0005299  -0.0001211   0.0012972   0.0003124
   63   0.0007592  -0.0016061  -0.0003787  -0.0010415   0.0023471   0.0006374
   64  -0.0000762  -0.0017741  -0.0002168   0.0005952   0.0016793  -0.0005127
   65   0.0001325   0.0008027   0.0001646   0.0006911  -0.0015416   0.0026232
   66  -0.0001897   0.0020679   0.0000507  -0.0004678  -0.0006056   0.0001362
   67  -0.0005831   0.0013808   0.0005531  -0.0000004  -0.0018566  -0.0004625
   68  -0.0003115  -0.0012288  -0.0000320   0.0000242  -0.0002947  -0.0000706
   69   0.0005921  -0.0021367  -0.0006695   0.0001792   0.0023984   0.0006817
   70  -0.0000465   0.0009017   0.0000751  -0.0000505  -0.0005408   0.0003071
   71  -0.0000458   0.0000480   0.0000666  -0.0000515   0.0003015  -0.0001687
   72  -0.0000267   0.0000853  -0.0000445  -0.0000749  -0.0001194  -0.0001905
   73   0.0000520  -0.0000780  -0.0000352   0.0000453   0.0000467  -0.0000120
   74  -0.0000051  -0.0001841   0.0000181   0.0000052   0.0000251   0.0000248
   75   0.0000154   0.0000766   0.0000251  -0.0000317  -0.0000515  -0.0000109
   76  -0.0000064  -0.0000376  -0.0000252   0.0000160   0.0000434  -0.0000099
   77   0.0001066  -0.0000214   0.0000217   0.0001021   0.0000368   0.0004828
   78  -0.0000833  -0.0001089  -0.0000308   0.0001911   0.0000487   0.0000530
   79  -0.0000330   0.0000391  -0.0000081  -0.0000027  -0.0000658   0.0000034
   80   0.0000136  -0.0000253  -0.0000089  -0.0000032   0.0000253   0.0000053
   81  -0.0000033   0.0000157   0.0000238  -0.0000015  -0.0000188  -0.0000196
   82   0.0000177   0.0000478   0.0000226  -0.0000471   0.0000365   0.0000547
   83  -0.0000145   0.0005823  -0.0000104   0.0000054  -0.0003166  -0.0001004
   84  -0.0001237  -0.0001692  -0.0000137   0.0000181  -0.0001752  -0.0000562
   85   0.0001007   0.0000967  -0.0000096   0.0000101  -0.0001031  -0.0000225
   86   0.0000584  -0.0003108  -0.0000179  -0.0000156   0.0002592   0.0001081
   87   0.0000129   0.0001943   0.0000472  -0.0000162   0.0000023  -0.0000295
   88   0.0003172   0.0033182  -0.0021227  -0.0056055  -0.0141591  -0.0110704
   89  -0.0006594  -0.0070445  -0.0022304  -0.0070190  -0.0352330  -0.0167034
   90  -0.0019186   0.0097267   0.0022177  -0.0119847  -0.0189677   0.0242714
   91  -0.0002250  -0.0000592  -0.0002589  -0.0004003  -0.0001422  -0.0002168
   92   0.0003634   0.0000705  -0.0000875  -0.0002199   0.0003087   0.0000563
   93  -0.0000992  -0.0001485   0.0000067  -0.0002221   0.0002383  -0.0002019
   94  -0.0000890  -0.0000913   0.0000295   0.0000184  -0.0001276  -0.0000466
   95   0.0000158  -0.0004141  -0.0001059   0.0000150   0.0002015   0.0000839
   96   0.0000765  -0.0003521  -0.0001011   0.0000196   0.0002504   0.0000820
   97   0.0008538  -0.0040405  -0.0010237  -0.0005998   0.0005113  -0.0026335
   98  -0.0003940  -0.0012454   0.0004866   0.0043059   0.0022641   0.0032682
   99   0.0004163  -0.0035306  -0.0005991   0.0006449   0.0011726  -0.0022339
  100  -0.0000315   0.0001599   0.0000244  -0.0000078  -0.0001436  -0.0000460
  101   0.0000166  -0.0000222  -0.0000107   0.0000017   0.0000365   0.0000088
  102   0.0000083  -0.0000375  -0.0000143   0.0000015   0.0000006  -0.0000030
  103   0.0000088  -0.0001224  -0.0000660   0.0000655  -0.0000026   0.0000121
  104   0.0000388  -0.0000236   0.0000055   0.0000299  -0.0000001   0.0000083
  105  -0.0000214  -0.0002617  -0.0000864   0.0000910  -0.0000700  -0.0000756
  106  -0.0006469  -0.0016765  -0.0004443   0.0015513  -0.0009342   0.0001085
  107   0.0002371   0.0007375   0.0002985  -0.0013333   0.0004739  -0.0002036
  108   0.0000616   0.0011934   0.0001089  -0.0006456   0.0000322  -0.0005673
  109   0.0002938   0.0019983   0.0006678  -0.0012379   0.0006247  -0.0000338
  110  -0.0002191  -0.0022576  -0.0010061   0.0012206  -0.0009175  -0.0005682
  111   0.0000285  -0.0013375  -0.0004614   0.0005717   0.0001955   0.0003005
  112   0.0000286  -0.0001348   0.0000146  -0.0000574  -0.0000017   0.0000794
  113  -0.0000089  -0.0002305  -0.0000120   0.0000535   0.0001956   0.0002278
  114  -0.0000191   0.0001125   0.0000100  -0.0001233  -0.0000861  -0.0003071
  115  -0.0001212  -0.0010279  -0.0004454   0.0004238  -0.0005616  -0.0005139
  116   0.0001796   0.0021973   0.0008223  -0.0009552   0.0006350   0.0004038
  117   0.0000697   0.0012016   0.0005229  -0.0005963   0.0003825   0.0002285
  118  -0.0000038  -0.0003368  -0.0001132   0.0001721   0.0000775   0.0001321
  119   0.0000016  -0.0000805   0.0000350  -0.0000133   0.0000754   0.0000547
  120   0.0000138   0.0000321  -0.0000392   0.0000196  -0.0000348  -0.0000087
  121   0.0000176   0.0001473   0.0000454  -0.0000669  -0.0000256  -0.0000183
  122   0.0000077   0.0001180   0.0000337  -0.0000622  -0.0000437  -0.0000470
  123  -0.0000092   0.0001195   0.0000986  -0.0001134  -0.0000012  -0.0000765
  124  -0.0000428   0.0001198   0.0000695   0.0000569  -0.0008670  -0.0002603
  125  -0.0001547  -0.0012962   0.0004380  -0.0001417   0.0005732   0.0001623
  126   0.0000097  -0.0004443  -0.0001639   0.0001000  -0.0000816  -0.0001288
  127   0.0001437   0.0000545   0.0001709  -0.0005281   0.0005072   0.0015749
  128  -0.0001462   0.0009222   0.0002016  -0.0031053  -0.0019040   0.0042774
  129   0.0004191  -0.0025158  -0.0000277   0.0023278   0.0070181   0.0001809
            7           8           9          10          11          12
    1   0.0014126   0.0153349   0.0080918  -0.0000272   0.0000395   0.0000138
    2  -0.0011973  -0.0479239  -0.0331441   0.0000563   0.0000426   0.0000127
    3   0.0034211  -0.0006015  -0.0006778  -0.0000017   0.0000684   0.0000116
    4  -0.0072118  -0.0343516  -0.0087106  -0.0000264  -0.0000072  -0.0000059
    5  -0.0137267  -0.1174561  -0.0942920  -0.0001092   0.0000576   0.0000052
    6  -0.0045616  -0.1214495  -0.1544031  -0.0000192  -0.0000330  -0.0000005
    7   0.0393450   0.0381235  -0.0306493   0.0000598   0.0000608  -0.0000029
    8   0.0381235   0.2525744   0.0801404   0.0000695  -0.0000662  -0.0000353
    9  -0.0306493   0.0801404   0.2608347  -0.0000720   0.0000777  -0.0000120
   10   0.0000598   0.0000695  -0.0000720   0.0839272   0.0640536  -0.0656992
   11   0.0000608  -0.0000662   0.0000777   0.0640536   0.2134629  -0.1543867
   12  -0.0000029  -0.0000353  -0.0000120  -0.0656992  -0.1543867   0.2100634
   13   0.0001980   0.0002179  -0.0001466   0.0056413   0.0021991   0.0130767
   14  -0.0001161   0.0000353   0.0001206   0.0137467   0.0073022   0.0223502
   15  -0.0000470  -0.0000922   0.0000054  -0.0125389  -0.0086827  -0.0146012
   16  -0.0003185  -0.0002866   0.0003814  -0.0848653  -0.0624054   0.0599923
   17   0.0004735   0.0004320  -0.0003762  -0.0604357  -0.2032623   0.1462390
   18  -0.0001976   0.0005063   0.0000221   0.0590129   0.1483826  -0.2034966
   19   0.0001648   0.0003339  -0.0004039  -0.0059075   0.0041187  -0.0042725
   20  -0.0001688  -0.0002256   0.0000407  -0.0263039   0.0038789   0.0007403
   21  -0.0001098  -0.0002144   0.0000934   0.0258013  -0.0036090  -0.0013769
   22  -0.0000136  -0.0000509   0.0000266  -0.0014972   0.0004090   0.0003860
   23   0.0000274  -0.0000830   0.0000594   0.0005204  -0.0001129  -0.0000647
   24   0.0000232   0.0000901  -0.0000498   0.0002653   0.0000128   0.0001776
   25  -0.0000178   0.0000134  -0.0000094  -0.0001399   0.0001532   0.0001579
   26   0.0000149  -0.0000066  -0.0000065   0.0000722  -0.0000939   0.0000372
   27  -0.0000121   0.0000203   0.0000120   0.0000010  -0.0000685  -0.0000097
   28   0.0000462  -0.0000271  -0.0000551  -0.0008324  -0.0002147   0.0008879
   29   0.0000717   0.0001071  -0.0001244   0.0010621   0.0000243  -0.0004474
   30  -0.0000622  -0.0002083   0.0001295   0.0004349   0.0001064  -0.0002362
   31   0.0002965  -0.0004626  -0.0001343   0.0024393  -0.0087958  -0.0047199
   32  -0.0012386  -0.0007203   0.0008882   0.0061682  -0.0187598  -0.0112708
   33   0.0003771  -0.0009300   0.0000389  -0.0079797   0.0192144   0.0081968
   34   0.0001131   0.0001532  -0.0000165   0.0006110  -0.0009852  -0.0004676
   35  -0.0000358   0.0000144  -0.0000442  -0.0003209   0.0008818   0.0006316
   36  -0.0000219   0.0001982  -0.0000892  -0.0002126   0.0002982   0.0000596
   37  -0.0000130  -0.0000577   0.0000238  -0.0000152  -0.0000680   0.0000070
   38   0.0000019   0.0000151  -0.0000100  -0.0001765   0.0002285  -0.0000205
   39   0.0000007   0.0000933  -0.0000207  -0.0000685  -0.0000224  -0.0000090
   40  -0.0000088  -0.0010978  -0.0007562  -0.0000017  -0.0000048  -0.0000019
   41   0.0000608   0.0020792  -0.0002754   0.0000060   0.0000033   0.0000010
   42  -0.0001844  -0.0009200  -0.0013262   0.0000006  -0.0000009  -0.0000016
   43  -0.0002169  -0.0000727  -0.0002832  -0.0000384   0.0000176   0.0000589
   44   0.0000318  -0.0000983  -0.0000286  -0.0000535   0.0001629  -0.0001535
   45   0.0000085   0.0000137   0.0000079   0.0001613  -0.0002419   0.0000988
   46  -0.0012835  -0.0002592  -0.0008891  -0.0003664   0.0022083   0.0010507
   47  -0.0008011  -0.0000327  -0.0005011   0.0016041  -0.0039108  -0.0024363
   48  -0.0009125   0.0000683  -0.0009296   0.0009513  -0.0028293  -0.0007110
   49  -0.0011394   0.0085527  -0.0023922  -0.0000029   0.0000802  -0.0003101
   50   0.0020359   0.0012129  -0.0006871  -0.0002597   0.0011570  -0.0005801
   51   0.0025149  -0.0009491  -0.0004521  -0.0003036   0.0012852   0.0012608
   52  -0.0001887  -0.0000980   0.0001646  -0.0000179   0.0000606   0.0000638
   53   0.0000557  -0.0000236  -0.0000195   0.0000244   0.0000003  -0.0000447
   54  -0.0001912   0.0004339  -0.0001178  -0.0000490   0.0000099  -0.0000528
   55  -0.0001099   0.0010201   0.0002162   0.0001085   0.0001399  -0.0000060
   56   0.0010511   0.0006281   0.0006859   0.0001134   0.0001828  -0.0000485
   57   0.0003267   0.0005616   0.0008357  -0.0000299  -0.0001645  -0.0000769
   58   0.0000537   0.0009988  -0.0006098  -0.0000332   0.0000856  -0.0000256
   59  -0.0013139  -0.0011287   0.0011372  -0.0000730  -0.0000118   0.0000120
   60   0.0006767  -0.0009789   0.0001879   0.0003071  -0.0003126   0.0000624
   61  -0.0144793  -0.0323433   0.0158225   0.0000123  -0.0002120   0.0000264
   62  -0.0187085  -0.0030153   0.0171493  -0.0000265   0.0000262  -0.0000369
   63   0.0112873   0.0101458  -0.0111102   0.0001798   0.0000143  -0.0000398
   64  -0.0000816   0.0010239   0.0007481  -0.0000190   0.0000033   0.0000171
   65  -0.0000900  -0.0003650  -0.0008704   0.0000251  -0.0000143   0.0000005
   66  -0.0004779  -0.0046028   0.0013535  -0.0000178   0.0000009  -0.0000073
   67   0.0010492  -0.0028587   0.0008906   0.0004069  -0.0002005   0.0001083
   68   0.0024519   0.0018289  -0.0020491  -0.0000047  -0.0003602  -0.0000436
   69  -0.0021924   0.0038247  -0.0003736  -0.0000466  -0.0000118   0.0000100
   70  -0.0000151  -0.0012603   0.0002815  -0.0000114  -0.0000105  -0.0000073
   71   0.0001713  -0.0002889   0.0000017  -0.0000131   0.0000053  -0.0000050
   72   0.0003267   0.0000991   0.0003726  -0.0000106  -0.0000053  -0.0000043
   73  -0.0002497   0.0002629   0.0002376  -0.0000018  -0.0000039  -0.0000029
   74  -0.0000242   0.0001970  -0.0000156  -0.0000215  -0.0000075  -0.0000121
   75   0.0001102  -0.0000751  -0.0001205  -0.0000245  -0.0000070  -0.0000122
   76  -0.0000670   0.0000171   0.0001041   0.0000001  -0.0000016  -0.0000007
   77  -0.0001270  -0.0001592  -0.0004331  -0.0000054   0.0000008   0.0000010
   78   0.0000972  -0.0000475   0.0003453  -0.0000091  -0.0000013   0.0000017
   79  -0.0000046   0.0000095  -0.0000028  -0.0000237  -0.0001231  -0.0000171
   80   0.0000013   0.0000454  -0.0000192  -0.0001050   0.0000860  -0.0000374
   81   0.0000216  -0.0000073   0.0000278   0.0000818  -0.0000684  -0.0000342
   82   0.0000892  -0.0002215  -0.0002669  -0.0001068   0.0000650  -0.0000237
   83   0.0001182  -0.0006902   0.0001803   0.0000832   0.0000392   0.0000086
   84   0.0005836  -0.0001731  -0.0002840  -0.0000397   0.0000453   0.0000208
   85  -0.0000967   0.0000329   0.0001676   0.0000037   0.0000006  -0.0000029
   86  -0.0001647   0.0003957  -0.0001088  -0.0000014  -0.0000139   0.0000037
   87  -0.0000792  -0.0002234   0.0001139   0.0000320   0.0000016  -0.0000050
   88  -0.0229554  -0.0076098   0.0305789  -0.0002344   0.0000554  -0.0000655
   89  -0.0057540  -0.0286459   0.0337222  -0.0001623   0.0000854  -0.0000646
   90   0.0215636   0.0062352  -0.0967070   0.0000038  -0.0001031  -0.0000493
   91   0.0002391   0.0002005   0.0001216   0.0004048  -0.0005619  -0.0002186
   92   0.0000169  -0.0001058  -0.0001352   0.0003370  -0.0007899  -0.0004104
   93   0.0000188  -0.0000547   0.0000931  -0.0003153   0.0010437   0.0007394
   94   0.0002977   0.0000610  -0.0001126  -0.0000188  -0.0000090  -0.0000065
   95   0.0001691   0.0004611  -0.0003327  -0.0000901   0.0000561   0.0000053
   96  -0.0000454   0.0003690  -0.0001544  -0.0001280   0.0000705  -0.0000092
   97   0.0095162   0.0233469  -0.0079668  -0.0000077   0.0000210   0.0000060
   98   0.0004374  -0.0349724   0.0212676  -0.0000369  -0.0000340   0.0000214
   99  -0.0034963   0.0200686  -0.0059932  -0.0000227  -0.0000691   0.0000166
  100   0.0001422  -0.0001470  -0.0000152   0.0000073  -0.0000042   0.0000029
  101  -0.0000209   0.0000141  -0.0000079  -0.0000010  -0.0000035  -0.0000060
  102   0.0000532   0.0000624  -0.0000607   0.0000060  -0.0000145  -0.0000033
  103  -0.0000623   0.0002080   0.0000931  -0.0000043  -0.0000031  -0.0000015
  104  -0.0000723  -0.0000314   0.0001030  -0.0000019  -0.0000039  -0.0000010
  105   0.0000081   0.0005082   0.0000125   0.0000048  -0.0000047   0.0000002
  106  -0.0036720  -0.0018975   0.0011942   0.0000251  -0.0000221  -0.0000063
  107   0.0052516   0.0029553  -0.0025027  -0.0000418   0.0000750  -0.0000009
  108   0.0007419   0.0031295  -0.0011710  -0.0000274  -0.0000111  -0.0000005
  109   0.0009648  -0.0010789  -0.0007946  -0.0000278   0.0000497   0.0000060
  110  -0.0021895   0.0049048   0.0003527   0.0000370  -0.0000841  -0.0000127
  111   0.0004830   0.0003840   0.0005654   0.0000153  -0.0000286  -0.0000056
  112   0.0004130  -0.0002937  -0.0000678   0.0000060  -0.0000188   0.0000035
  113   0.0003366  -0.0007496  -0.0000466  -0.0000220   0.0000095   0.0000117
  114  -0.0001896   0.0009551   0.0000238   0.0000222   0.0000080  -0.0000042
  115  -0.0002020   0.0026538   0.0003012   0.0000074  -0.0000259  -0.0000027
  116   0.0003902  -0.0039358  -0.0003269  -0.0000247   0.0000498   0.0000066
  117   0.0005393  -0.0020752  -0.0003517  -0.0000209   0.0000473   0.0000089
  118   0.0000344  -0.0000548   0.0000424  -0.0000002  -0.0000108  -0.0000029
  119   0.0002661  -0.0001787  -0.0000864  -0.0000021   0.0000116   0.0000032
  120  -0.0002157   0.0001318   0.0000496   0.0000041  -0.0000108  -0.0000030
  121  -0.0000399  -0.0000263  -0.0000133  -0.0000067   0.0000024   0.0000028
  122  -0.0000243   0.0000781   0.0000044  -0.0000042   0.0000079   0.0000039
  123   0.0002042  -0.0000291  -0.0001058   0.0000020   0.0000158   0.0000041
  124  -0.0004022   0.0012153   0.0005006   0.0000602  -0.0000444  -0.0000346
  125   0.0006053  -0.0007627  -0.0012693  -0.0000292  -0.0001277  -0.0000289
  126   0.0003429   0.0001331   0.0001883   0.0000043  -0.0000280  -0.0000014
  127  -0.0015854  -0.0092938  -0.0056204   0.0005133  -0.0000906   0.0000365
  128  -0.0064514  -0.0263131  -0.0182183   0.0003467  -0.0001813   0.0000531
  129  -0.0000814   0.0054951   0.0091970   0.0003451   0.0000122   0.0000311
           13          14          15          16          17          18
    1  -0.0000415   0.0000038  -0.0000048   0.0001409  -0.0000587  -0.0000929
    2   0.0000710  -0.0000733  -0.0000415  -0.0002621   0.0002140  -0.0000884
    3  -0.0000070  -0.0000561  -0.0000002  -0.0000212   0.0000719  -0.0002167
    4  -0.0000195   0.0000470   0.0000183   0.0000527  -0.0000805   0.0000800
    5  -0.0002272   0.0001106   0.0000780   0.0006655  -0.0004791  -0.0001076
    6  -0.0000551   0.0000419   0.0000307   0.0001496  -0.0001568   0.0000613
    7   0.0001980  -0.0001161  -0.0000470  -0.0003185   0.0004735  -0.0001976
    8   0.0002179   0.0000353  -0.0000922  -0.0002866   0.0004320   0.0005063
    9  -0.0001466   0.0001206   0.0000054   0.0003814  -0.0003762   0.0000221
   10   0.0056413   0.0137467  -0.0125389  -0.0848653  -0.0604357   0.0590129
   11   0.0021991   0.0073022  -0.0086827  -0.0624054  -0.2032623   0.1483826
   12   0.0130767   0.0223502  -0.0146012   0.0599923   0.1462390  -0.2034966
   13   0.1260581   0.0283847   0.1328080  -0.1235211  -0.0297551  -0.1242224
   14   0.0283847   0.0710319   0.0594345  -0.0312704  -0.0681348  -0.0550061
   15   0.1328080   0.0594345   0.3115017  -0.1262729  -0.0533112  -0.3010976
   16  -0.1235211  -0.0312704  -0.1262729   0.6763891   0.0381301   0.0122035
   17  -0.0297551  -0.0681348  -0.0533112   0.0381301   0.5312345  -0.0566054
   18  -0.1242224  -0.0550061  -0.3010976   0.0122035  -0.0566054   0.6668055
   19  -0.0115496   0.0013481   0.0084352  -0.3634011   0.0179244   0.0416197
   20  -0.0074053   0.0004753   0.0024902   0.0217652  -0.0571618  -0.0011891
   21  -0.0332394   0.0026926   0.0079818   0.0431789  -0.0008968  -0.0648642
   22  -0.0000096   0.0001018  -0.0000222  -0.0007539  -0.0005269   0.0009072
   23  -0.0000382   0.0000409  -0.0000133   0.0006101   0.0002712  -0.0004666
   24   0.0001285   0.0000011  -0.0001084   0.0005982   0.0001343  -0.0001433
   25  -0.0004499   0.0003481   0.0001553   0.0014662  -0.0012277  -0.0011920
   26   0.0004120   0.0003640   0.0002044   0.0008835   0.0003565   0.0010122
   27  -0.0001924   0.0003090   0.0003181   0.0012598  -0.0002789   0.0004794
   28  -0.0001390   0.0000525   0.0000536   0.0001396  -0.0002712  -0.0002962
   29   0.0000062  -0.0000023   0.0000671   0.0002763  -0.0000933   0.0002325
   30   0.0000289   0.0000353  -0.0000900  -0.0002911  -0.0005492   0.0000459
   31   0.0034047  -0.0127752  -0.0020339  -0.0874353   0.0240375   0.0096511
   32   0.0036438  -0.0092105  -0.0014051   0.0241553  -0.1631462  -0.0289786
   33   0.0100053  -0.0290062  -0.0061277   0.0070382  -0.0202463  -0.0851942
   34   0.0004533  -0.0010298  -0.0005683  -0.0147094   0.0081233   0.0034280
   35   0.0007615   0.0012780   0.0008152   0.0344857  -0.0042880  -0.0030395
   36   0.0010854  -0.0001023   0.0006538   0.0086057  -0.0014722  -0.0005379
   37  -0.0000262  -0.0000151   0.0000134   0.0001781  -0.0000555  -0.0000915
   38  -0.0000116   0.0000605  -0.0000073   0.0002731  -0.0002806  -0.0000794
   39   0.0000235   0.0000247   0.0000360   0.0000214   0.0003703   0.0001860
   40   0.0000002   0.0000086  -0.0000011   0.0000167  -0.0000117   0.0000271
   41   0.0000021   0.0000007  -0.0000035   0.0000009   0.0000060   0.0000040
   42   0.0000029  -0.0000009  -0.0000011   0.0000019   0.0000106   0.0000100
   43   0.0000982   0.0000220  -0.0001053   0.0000187   0.0003123  -0.0000880
   44  -0.0000338  -0.0005898   0.0001296   0.0003572   0.0010355   0.0001608
   45   0.0000033   0.0003469   0.0001329  -0.0002140  -0.0012514   0.0012051
   46   0.0000024  -0.0002092  -0.0000102   0.0034022   0.0069418  -0.0057025
   47  -0.0002486   0.0015250   0.0007207  -0.0115288  -0.0290300   0.0203992
   48   0.0000399  -0.0001958   0.0006262  -0.0029773  -0.0033292   0.0071592
   49  -0.0005023   0.0021658   0.0001120   0.0045970  -0.0028978   0.0051983
   50   0.0020942  -0.0045030  -0.0007420  -0.0109431  -0.0086694  -0.0282782
   51  -0.0001638   0.0004607   0.0002395  -0.0003113  -0.0130505  -0.0148649
   52  -0.0000174   0.0000505  -0.0000014   0.0000814  -0.0000524   0.0000399
   53  -0.0000044  -0.0000056   0.0000171   0.0000129   0.0000471   0.0000080
   54  -0.0000593   0.0000834   0.0000562   0.0002995   0.0000230   0.0001849
   55  -0.0000278   0.0000578   0.0000718   0.0005935   0.0006591  -0.0004065
   56   0.0000406  -0.0000957   0.0000288  -0.0004093   0.0018326  -0.0003632
   57  -0.0000970   0.0000681  -0.0000238  -0.0006262  -0.0014455   0.0005323
   58  -0.0000027   0.0000256   0.0000110   0.0001207  -0.0000571   0.0001926
   59   0.0000012  -0.0001455  -0.0000557  -0.0001102  -0.0000759  -0.0003719
   60   0.0000835  -0.0001522  -0.0000229  -0.0005626   0.0002363  -0.0004132
   61   0.0001714  -0.0001471   0.0003938  -0.0015514   0.0024807   0.0009495
   62   0.0001751  -0.0000873   0.0000422  -0.0006880   0.0007608  -0.0002092
   63   0.0005816  -0.0007421   0.0000510  -0.0020725   0.0021581  -0.0006313
   64  -0.0000447  -0.0000092   0.0000137  -0.0000501  -0.0000458  -0.0000878
   65   0.0000163   0.0000072  -0.0000119  -0.0000075   0.0000448   0.0000703
   66  -0.0000197   0.0000198   0.0000114   0.0001123  -0.0000610   0.0000120
   67   0.0002677  -0.0006408  -0.0002503  -0.0015130   0.0000417  -0.0022090
   68  -0.0001265  -0.0002278  -0.0000409  -0.0004200  -0.0003736  -0.0005002
   69   0.0003420  -0.0006485   0.0001626  -0.0009902   0.0017912  -0.0011537
   70  -0.0000096   0.0000115   0.0000060   0.0000438  -0.0000349   0.0000326
   71   0.0000081  -0.0000145   0.0000049  -0.0000091   0.0000236  -0.0000224
   72  -0.0000037   0.0000084   0.0000027   0.0000337  -0.0000249   0.0000253
   73   0.0000049   0.0000094   0.0000133   0.0000142   0.0000064   0.0000253
   74  -0.0000005  -0.0000184   0.0000050  -0.0000118   0.0000214  -0.0000143
   75  -0.0000392   0.0000302  -0.0000056   0.0000821  -0.0000948   0.0000821
   76   0.0000005   0.0000009  -0.0000016   0.0000050  -0.0000002   0.0000044
   77  -0.0000024  -0.0000003   0.0000015  -0.0000026  -0.0000067  -0.0000052
   78  -0.0000148   0.0000027   0.0000058  -0.0000004  -0.0000299  -0.0000174
   79  -0.0000549  -0.0003186  -0.0001278  -0.0060133  -0.0012242  -0.0004956
   80  -0.0000623   0.0001616   0.0001965  -0.0006010   0.0004335   0.0001846
   81   0.0000162   0.0002056   0.0002337   0.0004582  -0.0005087   0.0002743
   82  -0.0001168   0.0001810   0.0000156   0.0004282  -0.0002568   0.0003754
   83   0.0000128   0.0002002   0.0000461   0.0002638   0.0001126   0.0006538
   84   0.0000307  -0.0001786  -0.0000195  -0.0002890  -0.0000190  -0.0006992
   85   0.0000036  -0.0000000   0.0000047  -0.0000216   0.0000060   0.0000151
   86   0.0000033   0.0000201   0.0000039   0.0000294   0.0000170   0.0000812
   87   0.0000171   0.0000139   0.0000031  -0.0000104   0.0000692   0.0000957
   88  -0.0005334   0.0002776   0.0001670   0.0014427  -0.0019628  -0.0006011
   89  -0.0001798  -0.0002036   0.0002881   0.0008072  -0.0006432  -0.0018504
   90   0.0002635  -0.0002972   0.0001862   0.0000722   0.0010855  -0.0000984
   91  -0.0000225   0.0001363   0.0001101  -0.0007614  -0.0013434   0.0018615
   92   0.0000289   0.0003236   0.0001277  -0.0017077  -0.0012890   0.0032662
   93   0.0000666   0.0000834  -0.0000285   0.0020967   0.0024324  -0.0030901
   94   0.0000050  -0.0000225   0.0000241  -0.0000124   0.0000707  -0.0000520
   95  -0.0000228   0.0000418   0.0000296   0.0001320  -0.0000125   0.0001080
   96  -0.0000526   0.0000365   0.0000371   0.0001299   0.0000017   0.0000646
   97   0.0001679  -0.0001458  -0.0000144  -0.0004342   0.0004694  -0.0001063
   98  -0.0002132   0.0001174   0.0000458   0.0002292  -0.0005388  -0.0000626
   99  -0.0002077   0.0001964   0.0000120   0.0003453  -0.0006031   0.0002151
  100  -0.0000092  -0.0000237  -0.0000133  -0.0000532  -0.0000391  -0.0000670
  101   0.0000174  -0.0000461   0.0000011  -0.0000561   0.0000537  -0.0001070
  102   0.0000221  -0.0000640  -0.0000073  -0.0001073   0.0000350  -0.0001838
  103  -0.0000068   0.0000123   0.0000016   0.0000338  -0.0000230   0.0000201
  104   0.0000021   0.0000012  -0.0000012   0.0000008  -0.0000052   0.0000101
  105  -0.0000087   0.0000103  -0.0000016   0.0000215  -0.0000209   0.0000197
  106  -0.0000612   0.0000721  -0.0000083   0.0002025  -0.0001542   0.0001014
  107   0.0001458  -0.0001859   0.0000078  -0.0003927   0.0004217  -0.0002950
  108   0.0000726  -0.0000810  -0.0000059  -0.0002077   0.0001706  -0.0000425
  109   0.0000583  -0.0000848   0.0000116  -0.0001756   0.0001882  -0.0001785
  110  -0.0001058   0.0001710  -0.0000161   0.0003852  -0.0003672   0.0003464
  111  -0.0000399   0.0000718  -0.0000051   0.0001766  -0.0001397   0.0001453
  112   0.0000328  -0.0000383  -0.0000109  -0.0001374   0.0000500  -0.0000122
  113  -0.0000039  -0.0000101   0.0000031  -0.0000352   0.0000090  -0.0000392
  114  -0.0000210  -0.0000084   0.0000002  -0.0000275   0.0000192  -0.0000622
  115  -0.0000331   0.0000425  -0.0000035   0.0000880  -0.0000981   0.0000856
  116   0.0000547  -0.0000882   0.0000119  -0.0001911   0.0001929  -0.0001869
  117   0.0000434  -0.0000787   0.0000104  -0.0001756   0.0001694  -0.0001809
  118  -0.0000059   0.0000142  -0.0000035   0.0000378  -0.0000319   0.0000455
  119   0.0000114  -0.0000163   0.0000013  -0.0000371   0.0000376  -0.0000383
  120  -0.0000081   0.0000172  -0.0000018   0.0000391  -0.0000358   0.0000413
  121   0.0000019  -0.0000077  -0.0000001  -0.0000240   0.0000140  -0.0000165
  122   0.0000016  -0.0000024   0.0000024  -0.0000111   0.0000105  -0.0000217
  123   0.0000055  -0.0000228   0.0000042  -0.0000609   0.0000529  -0.0000684
  124   0.0000857  -0.0001422  -0.0000208  -0.0002601   0.0002966  -0.0001475
  125  -0.0002800   0.0004583  -0.0000228   0.0012943   0.0000807   0.0019888
  126  -0.0000958   0.0000272   0.0000044   0.0001159  -0.0003724  -0.0001609
  127   0.0005489  -0.0001242  -0.0003794  -0.0034800   0.0004188   0.0003864
  128   0.0004095  -0.0000655  -0.0003571  -0.0033709   0.0002080   0.0005114
  129  -0.0000526  -0.0000515  -0.0001591  -0.0021958  -0.0001907  -0.0004497
           19          20          21          22          23          24
    1  -0.0000404   0.0000081   0.0000157  -0.0000092  -0.0000207  -0.0000030
    2   0.0002365  -0.0000600  -0.0000122   0.0000199   0.0000795  -0.0000761
    3  -0.0000073  -0.0000002   0.0000403   0.0000056   0.0000313  -0.0000307
    4  -0.0001301   0.0000371   0.0000042   0.0000115   0.0000086   0.0000037
    5  -0.0005490   0.0000527   0.0000903  -0.0000112  -0.0000679   0.0000320
    6  -0.0000862   0.0000274   0.0000008  -0.0000069  -0.0000325   0.0000178
    7   0.0001648  -0.0001688  -0.0001098  -0.0000136   0.0000274   0.0000232
    8   0.0003339  -0.0002256  -0.0002144  -0.0000509  -0.0000830   0.0000901
    9  -0.0004039   0.0000407   0.0000934   0.0000266   0.0000594  -0.0000498
   10  -0.0059075  -0.0263039   0.0258013  -0.0014972   0.0005204   0.0002653
   11   0.0041187   0.0038789  -0.0036090   0.0004090  -0.0001129   0.0000128
   12  -0.0042725   0.0007403  -0.0013769   0.0003860  -0.0000647   0.0001776
   13  -0.0115496  -0.0074053  -0.0332394  -0.0000096  -0.0000382   0.0001285
   14   0.0013481   0.0004753   0.0026926   0.0001018   0.0000409   0.0000011
   15   0.0084352   0.0024902   0.0079818  -0.0000222  -0.0000133  -0.0001084
   16  -0.3634011   0.0217652   0.0431789  -0.0007539   0.0006101   0.0005982
   17   0.0179244  -0.0571618  -0.0008968  -0.0005269   0.0002712   0.0001343
   18   0.0416197  -0.0011891  -0.0648642   0.0009072  -0.0004666  -0.0001433
   19   0.3838309  -0.0191820  -0.0433370   0.0000885   0.0001212  -0.0001101
   20  -0.0191820   0.0592958   0.0036981   0.0001383   0.0001781  -0.0001971
   21  -0.0433370   0.0036981   0.0591179  -0.0002046  -0.0000521   0.0000044
   22   0.0000885   0.0001383  -0.0002046   0.0805686  -0.0856426  -0.0066652
   23   0.0001212   0.0001781  -0.0000521  -0.0856426   0.3624669   0.0238605
   24  -0.0001101  -0.0001971   0.0000044  -0.0066652   0.0238605   0.0630208
   25   0.0003233  -0.0002074   0.0001210   0.0002682   0.0000214  -0.0001991
   26  -0.0000675  -0.0000963   0.0000241   0.0004730   0.0009353  -0.0003737
   27   0.0002562  -0.0001423   0.0001074  -0.0003687  -0.0004277   0.0010947
   28   0.0000966  -0.0002642   0.0001263  -0.0807218   0.0809313   0.0044750
   29   0.0000635  -0.0002388  -0.0000850   0.0807068  -0.3455582  -0.0220616
   30  -0.0002604   0.0004319   0.0001051   0.0051143  -0.0239828  -0.0548783
   31  -0.0042003   0.0326996   0.0098852   0.0010360   0.0011342  -0.0010956
   32  -0.0019576  -0.0030821  -0.0007296   0.0000605   0.0003973  -0.0006908
   33  -0.0011639  -0.0035457  -0.0029227  -0.0007896  -0.0008771   0.0008263
   34   0.0008734   0.0000310  -0.0003959   0.0038788   0.0046779  -0.0087307
   35   0.0009032  -0.0059288  -0.0012976  -0.0176059  -0.0153707   0.0279463
   36   0.0005186  -0.0015438  -0.0000646  -0.0004021  -0.0006082   0.0019931
   37  -0.0000182  -0.0000056   0.0000016  -0.0047568  -0.0044526  -0.0004208
   38   0.0000262   0.0001632  -0.0000306   0.0360015   0.0011358   0.0032410
   39   0.0000572  -0.0001151  -0.0000335   0.0029938   0.0000787   0.0005617
   40   0.0000028  -0.0000045  -0.0000089  -0.0000013  -0.0000032   0.0000017
   41   0.0000133  -0.0000098  -0.0000021   0.0000006   0.0000030  -0.0000034
   42   0.0000137  -0.0000081  -0.0000052  -0.0000012  -0.0000009  -0.0000011
   43  -0.0000122  -0.0000704  -0.0000530   0.0000302   0.0000310  -0.0000475
   44  -0.0000369  -0.0000551  -0.0001112  -0.0000096  -0.0000047   0.0000068
   45   0.0000925   0.0000273   0.0000142  -0.0000072  -0.0000064   0.0000469
   46   0.0006017   0.0003404  -0.0007579   0.0000448   0.0001681   0.0000828
   47  -0.0007398   0.0021919   0.0008299   0.0000964  -0.0000451  -0.0000225
   48   0.0000322  -0.0005004   0.0002200   0.0000734  -0.0000360   0.0000662
   49   0.0007735  -0.0004239  -0.0002262  -0.0004339   0.0000333  -0.0003216
   50  -0.0001125   0.0013189   0.0007659   0.0001489   0.0001623  -0.0009413
   51  -0.0003466   0.0013854   0.0008835  -0.0004274  -0.0000800   0.0001205
   52   0.0000236  -0.0000022  -0.0000090   0.0003569  -0.0001037   0.0002712
   53   0.0000060  -0.0000191  -0.0000006   0.0002061   0.0009779  -0.0007315
   54   0.0001191  -0.0000862  -0.0000740   0.0002328   0.0009625   0.0014476
   55   0.0003083  -0.0003251  -0.0000085  -0.0000035  -0.0000032   0.0000631
   56   0.0000882   0.0000298  -0.0000474   0.0000317   0.0000692  -0.0000169
   57  -0.0001282   0.0002853   0.0002801  -0.0000008  -0.0000148  -0.0000466
   58   0.0001335  -0.0000477  -0.0000907   0.0026761   0.0045672   0.0088102
   59  -0.0000991   0.0001427  -0.0000056  -0.0127462  -0.0072317  -0.0310214
   60  -0.0003078   0.0000352   0.0002653  -0.0018434  -0.0008834  -0.0061542
   61  -0.0003739   0.0003722   0.0002873   0.0001114  -0.0002972   0.0002878
   62   0.0000729   0.0001153   0.0000507   0.0001143   0.0000233   0.0000054
   63   0.0003419  -0.0002678  -0.0000620   0.0000647  -0.0000430   0.0001863
   64  -0.0000484   0.0001139   0.0000879   0.0000196   0.0000031  -0.0000036
   65   0.0000730  -0.0000433  -0.0000168  -0.0000002  -0.0000148   0.0000083
   66  -0.0001208  -0.0000229  -0.0000106  -0.0000035   0.0000028   0.0000030
   67  -0.0004719   0.0001754   0.0003527   0.0007469  -0.0002674   0.0023283
   68  -0.0000310   0.0000118   0.0001458  -0.0006644   0.0002961  -0.0000122
   69   0.0002899  -0.0002129  -0.0002010  -0.0004429   0.0007614  -0.0002679
   70  -0.0000183   0.0000009  -0.0000085  -0.0000037  -0.0000069   0.0000033
   71  -0.0000069   0.0000010  -0.0000106  -0.0000024   0.0000123  -0.0000111
   72  -0.0000055  -0.0000036  -0.0000132  -0.0000062  -0.0000061   0.0000013
   73   0.0000131  -0.0000074  -0.0000024  -0.0000226  -0.0000316  -0.0000274
   74   0.0000090  -0.0000016  -0.0000092  -0.0000435  -0.0000135  -0.0000752
   75   0.0000048   0.0000098  -0.0000056  -0.0001442   0.0000148  -0.0001762
   76  -0.0000036  -0.0000035  -0.0000014  -0.0000017  -0.0000042   0.0000041
   77  -0.0000035   0.0000136   0.0000040   0.0000014   0.0000023  -0.0000023
   78  -0.0000131   0.0000321   0.0000228   0.0000038  -0.0000021  -0.0000000
   79  -0.0002450   0.0017092   0.0003837  -0.0010158  -0.0012489   0.0034493
   80   0.0000494   0.0002579   0.0001523  -0.0014497   0.0005707   0.0020704
   81   0.0002170  -0.0000691   0.0002583   0.0026153   0.0020353  -0.0035990
   82   0.0000528   0.0000073  -0.0000447  -0.0005061  -0.0000039  -0.0008702
   83   0.0000136  -0.0000483  -0.0000288   0.0005435   0.0002433   0.0009021
   84   0.0000052   0.0000346   0.0000330  -0.0000732   0.0000221  -0.0003274
   85  -0.0000021   0.0000064   0.0000070   0.0000741   0.0000936   0.0001014
   86   0.0000078  -0.0000153  -0.0000178   0.0000277  -0.0000329   0.0001158
   87  -0.0000077  -0.0000050  -0.0000008   0.0001122   0.0000869   0.0001970
   88  -0.0024582  -0.0008926  -0.0004255  -0.0000476   0.0000085  -0.0000541
   89  -0.0028117  -0.0007367  -0.0003922  -0.0000377  -0.0000479   0.0001196
   90  -0.0012656  -0.0009922  -0.0003167   0.0000529  -0.0000035  -0.0000517
   91   0.0001167  -0.0000606   0.0000311   0.0000377   0.0000058  -0.0000508
   92  -0.0001138   0.0002562   0.0000531   0.0000666   0.0000456  -0.0000792
   93   0.0000232  -0.0001139  -0.0001520  -0.0000289   0.0000132  -0.0000077
   94   0.0000054  -0.0000006   0.0000147  -0.0001595  -0.0009551  -0.0023925
   95   0.0000817  -0.0000122  -0.0000518  -0.0002319   0.0006687  -0.0021587
   96   0.0000990   0.0000072  -0.0000480  -0.0011091  -0.0002352  -0.0040524
   97   0.0001470  -0.0000121  -0.0001082   0.0000294   0.0001009  -0.0000722
   98  -0.0001806   0.0002170   0.0002154   0.0000113  -0.0001028   0.0000764
   99  -0.0000798   0.0001611   0.0001372  -0.0000097  -0.0001432   0.0001029
  100  -0.0000108   0.0000153   0.0000191   0.0000340   0.0000576   0.0000839
  101   0.0000034  -0.0000082  -0.0000045  -0.0000125   0.0000045  -0.0000216
  102  -0.0000108   0.0000018   0.0000073  -0.0000011   0.0000023   0.0000188
  103   0.0000035  -0.0000030  -0.0000005  -0.0000008  -0.0000102   0.0000060
  104  -0.0000112   0.0000028  -0.0000067  -0.0000023  -0.0000040   0.0000031
  105   0.0000080  -0.0000060   0.0000043  -0.0000007  -0.0000118   0.0000069
  106  -0.0000182  -0.0000411   0.0000339  -0.0000003  -0.0000785   0.0000451
  107  -0.0000691   0.0000227  -0.0000880   0.0000135   0.0001734  -0.0001178
  108  -0.0000607   0.0000757  -0.0000651  -0.0000080   0.0000432  -0.0000243
  109  -0.0000167   0.0000364  -0.0000139   0.0000054   0.0001048  -0.0000589
  110   0.0000477  -0.0000730   0.0000095  -0.0000211  -0.0001793   0.0001081
  111   0.0000636  -0.0000534  -0.0000003  -0.0000024  -0.0000720   0.0000370
  112  -0.0000692   0.0000388  -0.0000249  -0.0000038   0.0000078  -0.0000067
  113   0.0000316   0.0000752   0.0000125   0.0000046   0.0000144  -0.0000088
  114  -0.0000408   0.0000036   0.0000836   0.0000016   0.0000092  -0.0000029
  115   0.0000021  -0.0000048   0.0000133  -0.0000026  -0.0000531   0.0000317
  116  -0.0000157   0.0000378  -0.0000072   0.0000064   0.0001054  -0.0000601
  117  -0.0000227   0.0000432   0.0000063   0.0000101   0.0000904  -0.0000522
  118   0.0000134  -0.0000111  -0.0000105  -0.0000051  -0.0000205   0.0000095
  119  -0.0000013   0.0000041  -0.0000008   0.0000052   0.0000192  -0.0000123
  120   0.0000039  -0.0000119  -0.0000044  -0.0000040  -0.0000183   0.0000116
  121  -0.0000059   0.0000200   0.0000037  -0.0000021   0.0000068  -0.0000023
  122  -0.0000043   0.0000077   0.0000034   0.0000027   0.0000100  -0.0000037
  123  -0.0000066   0.0000141   0.0000201   0.0000066   0.0000278  -0.0000150
  124   0.0000733  -0.0001050  -0.0000131   0.0000205  -0.0000138   0.0000587
  125  -0.0000350  -0.0001520  -0.0001008  -0.0000724  -0.0000352  -0.0000706
  126  -0.0000949   0.0001288   0.0001241  -0.0000006  -0.0000381   0.0000381
  127   0.0013532  -0.0019626  -0.0012739  -0.0000660   0.0000143   0.0000003
  128   0.0004553  -0.0007825  -0.0009182  -0.0000607  -0.0000019   0.0000360
  129  -0.0000482  -0.0005870   0.0004096  -0.0000333   0.0000181   0.0000083
           25          26          27          28          29          30
    1  -0.0000063  -0.0000057  -0.0000047   0.0000537   0.0000115   0.0000047
    2  -0.0000056   0.0000190  -0.0000396  -0.0000009  -0.0001330   0.0002264
    3  -0.0000204  -0.0000006  -0.0000147   0.0000439  -0.0000363   0.0000781
    4   0.0000125   0.0000026   0.0000130  -0.0000660  -0.0000026  -0.0000189
    5   0.0000065  -0.0000216   0.0000206   0.0000887   0.0000792  -0.0001120
    6   0.0000201  -0.0000054   0.0000049   0.0000054   0.0000354  -0.0000569
    7  -0.0000178   0.0000149  -0.0000121   0.0000462   0.0000717  -0.0000622
    8   0.0000134  -0.0000066   0.0000203  -0.0000271   0.0001071  -0.0002083
    9  -0.0000094  -0.0000065   0.0000120  -0.0000551  -0.0001244   0.0001295
   10  -0.0001399   0.0000722   0.0000010  -0.0008324   0.0010621   0.0004349
   11   0.0001532  -0.0000939  -0.0000685  -0.0002147   0.0000243   0.0001064
   12   0.0001579   0.0000372  -0.0000097   0.0008879  -0.0004474  -0.0002362
   13  -0.0004499   0.0004120  -0.0001924  -0.0001390   0.0000062   0.0000289
   14   0.0003481   0.0003640   0.0003090   0.0000525  -0.0000023   0.0000353
   15   0.0001553   0.0002044   0.0003181   0.0000536   0.0000671  -0.0000900
   16   0.0014662   0.0008835   0.0012598   0.0001396   0.0002763  -0.0002911
   17  -0.0012277   0.0003565  -0.0002789  -0.0002712  -0.0000933  -0.0005492
   18  -0.0011920   0.0010122   0.0004794  -0.0002962   0.0002325   0.0000459
   19   0.0003233  -0.0000675   0.0002562   0.0000966   0.0000635  -0.0002604
   20  -0.0002074  -0.0000963  -0.0001423  -0.0002642  -0.0002388   0.0004319
   21   0.0001210   0.0000241   0.0001074   0.0001263  -0.0000850   0.0001051
   22   0.0002682   0.0004730  -0.0003687  -0.0807218   0.0807068   0.0051143
   23   0.0000214   0.0009353  -0.0004277   0.0809313  -0.3455582  -0.0239828
   24  -0.0001991  -0.0003737   0.0010947   0.0044750  -0.0220616  -0.0548783
   25   0.0926549   0.0338820   0.0907682   0.0048939   0.0064014   0.0154442
   26   0.0338820   0.0916384   0.0965547   0.0063227   0.0064244   0.0202758
   27   0.0907682   0.0965547   0.3225445  -0.0067307  -0.0085370  -0.0198035
   28   0.0048939   0.0063227  -0.0067307   0.6706841  -0.0448331   0.0069511
   29   0.0064014   0.0064244  -0.0085370  -0.0448331   0.6476061   0.0129440
   30   0.0154442   0.0202758  -0.0198035   0.0069511   0.0129440   0.4891065
   31  -0.0131802   0.0029372   0.0011638  -0.0196011  -0.0051254   0.0072657
   32  -0.0102500   0.0006364   0.0007507  -0.0206045   0.0018096  -0.0008946
   33  -0.0299956   0.0039732   0.0016758   0.0260287  -0.0020507   0.0013469
   34  -0.0838299  -0.0317867  -0.0899113  -0.1060823  -0.0276113   0.0391703
   35  -0.0313350  -0.0925413  -0.0950389  -0.0282261  -0.1309036   0.0526794
   36  -0.0890986  -0.0939250  -0.3082135   0.0388694   0.0498486  -0.1517301
   37   0.0008389   0.0003269  -0.0003565  -0.3709708   0.0224547  -0.0252027
   38   0.0005160   0.0006115  -0.0005038   0.0213682  -0.0587366   0.0015994
   39   0.0000051  -0.0005423   0.0010955  -0.0226413   0.0010236  -0.0543864
   40   0.0000093   0.0000002  -0.0000022   0.0000001   0.0000029  -0.0000003
   41   0.0000049  -0.0000006  -0.0000039   0.0000037  -0.0000058   0.0000130
   42   0.0000006   0.0000005  -0.0000006  -0.0000009  -0.0000015   0.0000014
   43  -0.0002986  -0.0003181   0.0002841  -0.0000051   0.0001068  -0.0000715
   44  -0.0002605   0.0001112  -0.0000133   0.0002115  -0.0000983   0.0000174
   45   0.0003812   0.0000754   0.0002033  -0.0002435   0.0000800   0.0000868
   46   0.0007785  -0.0002151   0.0009320  -0.0061267   0.0009931  -0.0017228
   47   0.0004634  -0.0000854   0.0000656   0.0017562   0.0005046  -0.0004281
   48  -0.0008042  -0.0002415   0.0005686  -0.0010594   0.0001336  -0.0000417
   49  -0.0050621   0.0013140   0.0010197   0.0048275   0.0022394   0.0022551
   50   0.0008057   0.0003187  -0.0003636   0.0006623  -0.0019171   0.0013222
   51   0.0016329   0.0003373   0.0002593   0.0010022   0.0006035  -0.0019131
   52   0.0003961   0.0002788  -0.0003038   0.0022286   0.0070368  -0.0053230
   53   0.0004475   0.0004704  -0.0004410   0.0027599   0.0089681  -0.0114047
   54   0.0011488   0.0007135  -0.0007868   0.0055022   0.0168349  -0.0174854
   55   0.0002321   0.0001075   0.0000337  -0.0003944   0.0000294  -0.0001937
   56   0.0001240  -0.0000143   0.0001292  -0.0013847   0.0005329  -0.0003615
   57   0.0001592   0.0000995  -0.0000232   0.0011792  -0.0001645   0.0006054
   58  -0.0008734  -0.0019899   0.0017730  -0.0915428  -0.0145619  -0.0270658
   59  -0.0031251  -0.0018785   0.0032269  -0.0092824  -0.1026710  -0.0452922
   60   0.0022118   0.0024963  -0.0007546  -0.0312023  -0.0451463  -0.1852123
   61  -0.0002117  -0.0001808   0.0003962  -0.0002036   0.0005441  -0.0009671
   62  -0.0004227   0.0001382   0.0001760  -0.0001533  -0.0003204  -0.0000318
   63  -0.0019642   0.0002012   0.0005195  -0.0001215   0.0003187  -0.0007474
   64  -0.0000202  -0.0000010   0.0000191  -0.0000140   0.0000027  -0.0000065
   65   0.0000066  -0.0000029   0.0000001   0.0000023   0.0000072  -0.0000105
   66  -0.0000011  -0.0000024   0.0000057  -0.0000096   0.0000133  -0.0000151
   67  -0.0012175  -0.0002619   0.0009008  -0.0128565  -0.0014088  -0.0127291
   68  -0.0001292  -0.0003661   0.0002957  -0.0123665  -0.0055044  -0.0024451
   69   0.0005593   0.0002166   0.0001361  -0.0321742  -0.0088449   0.0005563
   70   0.0000039  -0.0000038   0.0000022  -0.0000029   0.0000141  -0.0000101
   71  -0.0000074   0.0000037  -0.0000027  -0.0000028  -0.0000102   0.0000160
   72   0.0000087  -0.0000014  -0.0000023   0.0000005   0.0000006  -0.0000009
   73   0.0000314   0.0000162  -0.0000291  -0.0001011   0.0001113   0.0000702
   74   0.0000097   0.0000054  -0.0000078  -0.0007594  -0.0001910   0.0003535
   75   0.0000446  -0.0000101   0.0000019  -0.0005547  -0.0006211   0.0006884
   76  -0.0000031  -0.0000000   0.0000022   0.0000016   0.0000061  -0.0000108
   77   0.0000018   0.0000009  -0.0000006  -0.0000028  -0.0000012   0.0000046
   78   0.0000032  -0.0000011   0.0000029  -0.0000031   0.0000019  -0.0000029
   79   0.0036979  -0.0125440  -0.0007162   0.0042476  -0.0182088  -0.0018678
   80   0.0038442  -0.0071455   0.0043297   0.0038548  -0.0162563  -0.0025347
   81   0.0104462  -0.0315667   0.0006236  -0.0064066   0.0284747   0.0005931
   82   0.0002290   0.0000017  -0.0000488  -0.0029509  -0.0024628   0.0035683
   83   0.0000706   0.0002626  -0.0001881  -0.0025967   0.0037297  -0.0004159
   84  -0.0000416  -0.0000669   0.0000351   0.0016612  -0.0003237   0.0014484
   85   0.0000060   0.0000470  -0.0000264  -0.0004239   0.0003074  -0.0002173
   86   0.0000107  -0.0000016  -0.0000010  -0.0002594   0.0003252  -0.0001243
   87  -0.0000249   0.0000669  -0.0000060  -0.0007085   0.0004978  -0.0003836
   88   0.0001707   0.0000385  -0.0000920   0.0000989   0.0000811   0.0002507
   89   0.0000515   0.0000165  -0.0000325   0.0000267   0.0003910  -0.0002970
   90  -0.0000523   0.0000181   0.0000320   0.0000624  -0.0001001   0.0001917
   91  -0.0001278  -0.0000256   0.0000334  -0.0000131   0.0001760  -0.0000785
   92   0.0000177   0.0000285   0.0000815   0.0001057   0.0002365   0.0000037
   93   0.0001315  -0.0000184  -0.0000598  -0.0001429  -0.0000609   0.0000497
   94   0.0000442   0.0001335  -0.0001141   0.0056438  -0.0085709  -0.0043740
   95   0.0000626  -0.0000013  -0.0000713   0.0028839  -0.0079869  -0.0010525
   96   0.0000833   0.0004541  -0.0001311   0.0152556  -0.0224925  -0.0078877
   97  -0.0000365   0.0000299  -0.0000276   0.0000018  -0.0001559   0.0001882
   98   0.0000287  -0.0000410   0.0000611  -0.0000414   0.0001540  -0.0002502
   99   0.0000477  -0.0000511   0.0000646  -0.0000655   0.0001417  -0.0002489
  100  -0.0000292   0.0000026   0.0000081  -0.0001857   0.0000972  -0.0001009
  101  -0.0000314  -0.0000044   0.0000102   0.0001065  -0.0000758  -0.0000347
  102  -0.0000624  -0.0000470   0.0000516   0.0003809  -0.0001653   0.0001054
  103   0.0000034  -0.0000035   0.0000036  -0.0000008   0.0000096  -0.0000169
  104   0.0000002  -0.0000002   0.0000005  -0.0000012   0.0000048  -0.0000075
  105   0.0000023  -0.0000045   0.0000035   0.0000024   0.0000079  -0.0000139
  106   0.0000101  -0.0000306   0.0000277   0.0000244   0.0000683  -0.0001240
  107  -0.0000416   0.0000595  -0.0000639   0.0000071  -0.0002016   0.0003038
  108  -0.0000227   0.0000234  -0.0000193   0.0000047  -0.0000321   0.0000749
  109  -0.0000191   0.0000389  -0.0000326  -0.0000128  -0.0000771   0.0001425
  110   0.0000469  -0.0000657   0.0000534   0.0000126   0.0001572  -0.0002558
  111   0.0000225  -0.0000310   0.0000225   0.0000078   0.0000469  -0.0000936
  112  -0.0000098   0.0000068  -0.0000081   0.0000080  -0.0000189   0.0000301
  113  -0.0000054   0.0000059  -0.0000020  -0.0000042  -0.0000150   0.0000203
  114  -0.0000064   0.0000045  -0.0000023   0.0000027  -0.0000091   0.0000137
  115   0.0000080  -0.0000194   0.0000185   0.0000035   0.0000409  -0.0000750
  116  -0.0000221   0.0000399  -0.0000324  -0.0000117  -0.0000753   0.0001408
  117  -0.0000226   0.0000341  -0.0000263  -0.0000086  -0.0000736   0.0001242
  118   0.0000047  -0.0000071   0.0000035   0.0000069   0.0000133  -0.0000214
  119  -0.0000045   0.0000061  -0.0000048  -0.0000022  -0.0000197   0.0000276
  120   0.0000059  -0.0000063   0.0000046   0.0000015   0.0000181  -0.0000261
  121  -0.0000038   0.0000049  -0.0000031  -0.0000005  -0.0000036   0.0000096
  122  -0.0000020   0.0000044  -0.0000013  -0.0000054  -0.0000046   0.0000077
  123  -0.0000089   0.0000102  -0.0000061  -0.0000032  -0.0000253   0.0000385
  124  -0.0004918   0.0001021   0.0001345   0.0001131   0.0001937  -0.0002035
  125  -0.0002223  -0.0001143   0.0002019   0.0001752  -0.0000627   0.0001885
  126  -0.0000109   0.0000610   0.0000236  -0.0001510   0.0000731  -0.0001319
  127  -0.0000546   0.0000113  -0.0000739   0.0001282  -0.0000872   0.0000864
  128  -0.0000387   0.0000245  -0.0000201  -0.0000159   0.0000212  -0.0000240
  129  -0.0000243   0.0000077  -0.0000311   0.0000743   0.0000053  -0.0000038
           31          32          33          34          35          36
    1  -0.0000832   0.0000178   0.0001702  -0.0000704   0.0000585  -0.0000384
    2   0.0000457   0.0002058   0.0004748  -0.0000253  -0.0001054  -0.0001529
    3   0.0001437  -0.0000602   0.0004031  -0.0000329   0.0000244  -0.0001385
    4  -0.0000814   0.0000731  -0.0003276   0.0000675  -0.0000366   0.0000739
    5  -0.0001624   0.0001206  -0.0001282  -0.0001562   0.0002054   0.0000194
    6  -0.0001115   0.0001497  -0.0001785  -0.0000746   0.0000179   0.0000884
    7   0.0002965  -0.0012386   0.0003771   0.0001131  -0.0000358  -0.0000219
    8  -0.0004626  -0.0007203  -0.0009300   0.0001532   0.0000144   0.0001982
    9  -0.0001343   0.0008882   0.0000389  -0.0000165  -0.0000442  -0.0000892
   10   0.0024393   0.0061682  -0.0079797   0.0006110  -0.0003209  -0.0002126
   11  -0.0087958  -0.0187598   0.0192144  -0.0009852   0.0008818   0.0002982
   12  -0.0047199  -0.0112708   0.0081968  -0.0004676   0.0006316   0.0000596
   13   0.0034047   0.0036438   0.0100053   0.0004533   0.0007615   0.0010854
   14  -0.0127752  -0.0092105  -0.0290062  -0.0010298   0.0012780  -0.0001023
   15  -0.0020339  -0.0014051  -0.0061277  -0.0005683   0.0008152   0.0006538
   16  -0.0874353   0.0241553   0.0070382  -0.0147094   0.0344857   0.0086057
   17   0.0240375  -0.1631462  -0.0202463   0.0081233  -0.0042880  -0.0014722
   18   0.0096511  -0.0289786  -0.0851942   0.0034280  -0.0030395  -0.0005379
   19  -0.0042003  -0.0019576  -0.0011639   0.0008734   0.0009032   0.0005186
   20   0.0326996  -0.0030821  -0.0035457   0.0000310  -0.0059288  -0.0015438
   21   0.0098852  -0.0007296  -0.0029227  -0.0003959  -0.0012976  -0.0000646
   22   0.0010360   0.0000605  -0.0007896   0.0038788  -0.0176059  -0.0004021
   23   0.0011342   0.0003973  -0.0008771   0.0046779  -0.0153707  -0.0006082
   24  -0.0010956  -0.0006908   0.0008263  -0.0087307   0.0279463   0.0019931
   25  -0.0131802  -0.0102500  -0.0299956  -0.0838299  -0.0313350  -0.0890986
   26   0.0029372   0.0006364   0.0039732  -0.0317867  -0.0925413  -0.0939250
   27   0.0011638   0.0007507   0.0016758  -0.0899113  -0.0950389  -0.3082135
   28  -0.0196011  -0.0206045   0.0260287  -0.1060823  -0.0282261   0.0388694
   29  -0.0051254   0.0018096  -0.0020507  -0.0276113  -0.1309036   0.0498486
   30   0.0072657  -0.0008946   0.0013469   0.0391703   0.0526794  -0.1517301
   31   0.4887973   0.0010788  -0.0113749  -0.1777351   0.0135210  -0.0034263
   32   0.0010788   0.4744440  -0.0077221   0.0096669  -0.0822712  -0.0010015
   33  -0.0113749  -0.0077221   0.4506987  -0.0033935  -0.0018346  -0.0804729
   34  -0.1777351   0.0096669  -0.0033935   0.4917745  -0.0209790   0.0361266
   35   0.0135210  -0.0822712  -0.0018346  -0.0209790   0.6635930   0.0603242
   36  -0.0034263  -0.0010015  -0.0804729   0.0361266   0.0603242   0.6472243
   37   0.0014756  -0.0008543   0.0008394  -0.0107176   0.0014496  -0.0006405
   38  -0.0004394  -0.0018369   0.0026377  -0.0203809   0.0006391  -0.0008290
   39   0.0006004   0.0034386  -0.0038663   0.0272856  -0.0028909   0.0019169
   40   0.0000138   0.0000102  -0.0000370  -0.0000099   0.0000062   0.0000306
   41   0.0000305  -0.0000021   0.0000137  -0.0000103   0.0000019   0.0000073
   42  -0.0000110   0.0000111   0.0000071  -0.0000039   0.0000000  -0.0000022
   43   0.0046884   0.0017589   0.0128396   0.0004754  -0.0001788   0.0011660
   44   0.0102423   0.0031386   0.0234329   0.0006978   0.0004802  -0.0000514
   45  -0.0071939  -0.0029700  -0.0184535  -0.0009992  -0.0007539   0.0008194
   46  -0.0939309  -0.0262597   0.0230330  -0.0202881  -0.0239758   0.0241123
   47  -0.0249608  -0.1268322   0.0437569  -0.0052143  -0.0009246   0.0011566
   48   0.0222838   0.0458249  -0.1165005   0.0075606   0.0027951  -0.0020576
   49  -0.0897726  -0.0061778  -0.0175062  -0.0155504  -0.0084924  -0.0322513
   50  -0.0096192  -0.0703458  -0.0151851  -0.0018770  -0.0002852   0.0015685
   51  -0.0247384  -0.0117537  -0.1335835  -0.0102053  -0.0022671  -0.0024117
   52  -0.0001064  -0.0002951  -0.0004587  -0.0008075  -0.0013717  -0.0012905
   53  -0.0002787   0.0001442  -0.0000627  -0.0009639  -0.0011579  -0.0032557
   54  -0.0011946  -0.0001796  -0.0004411  -0.0031884  -0.0029942  -0.0034045
   55  -0.0062522   0.0020403  -0.0019729   0.0005842  -0.0009884   0.0014031
   56  -0.0246134   0.0002060   0.0010714  -0.0002450  -0.0029012   0.0032691
   57   0.0228054  -0.0016772  -0.0028732   0.0002930   0.0028595  -0.0023831
   58  -0.0005681   0.0007651  -0.0017362   0.0044148   0.0073958   0.0109298
   59   0.0011050  -0.0021335  -0.0012877   0.0070943   0.0081936   0.0179048
   60  -0.0015897   0.0000116   0.0027487  -0.0021250  -0.0050373  -0.0382076
   61  -0.0081230  -0.0057066  -0.0136983   0.0024238   0.0003052   0.0001373
   62  -0.0074378   0.0004200  -0.0001464   0.0010010   0.0003318  -0.0016052
   63  -0.0267739  -0.0049650   0.0005135   0.0016088  -0.0017166  -0.0064422
   64   0.0000035   0.0000089  -0.0000017   0.0000291   0.0000083  -0.0000616
   65  -0.0000328   0.0000072  -0.0000486  -0.0000092   0.0000238   0.0000203
   66  -0.0000938   0.0000913  -0.0001058   0.0000112  -0.0000229   0.0000113
   67   0.0126284   0.0027022   0.0025240   0.0024316  -0.0009582   0.0005114
[...]
     32 H                     0.140699       0.002111
     33 C                     0.032794      -0.105231
     34 H                     0.136797       0.000364
     35 H                     0.122000       0.000701
     36 C                    -0.027579      -0.044973
     37 C                    -0.043631      -0.015148
     38 H                     0.113294       0.001909
     39 C                    -0.057347      -0.160276
     40 H                     0.145219       0.006749
     41 H                     0.129657       0.006669
     42 H                     0.119523      -0.000515
     43 H                     0.135225       0.001367
  --------------------------------------------------------
  Sum of atomic charges =     2.000000
  Sum of spin   charges =     4.000000

 -----------------------------------------------------------------
                    Cartesian Multipole Moments
 -----------------------------------------------------------------
    Charge (ESU x 10^10)
                 9.6064
    Dipole Moment (Debye)
         X      -2.2115      Y       0.3231      Z      -3.5029
       Tot       4.1552
    Quadrupole Moments (Debye-Ang)
        XX     -31.9089     XY     -10.0815     YY     -61.3509
        XZ      -9.3263     YZ       1.9846     ZZ     -93.4392
    Octopole Moments (Debye-Ang^2)
       XXX     -65.1024    XXY     122.3011    XYY    -138.9577
       YYY     -76.4208    XXZ     -40.8477    XYZ      -3.4407
       YYZ      19.2790    XZZ      23.3955    YZZ      -8.4316
       ZZZ     -20.5618
    Hexadecapole Moments (Debye-Ang^3)
      XXXX   -3659.8393   XXXY    -434.0334   XXYY    -721.5289
      XYYY    -117.7997   YYYY   -2149.1550   XXXZ    -101.9948
      XXYZ       7.5013   XYYZ     -57.7863   YYYZ      16.4189
      XXZZ    -885.5218   XYZZ      22.6422   YYZZ    -640.1952
      XZZZ     -64.8728   YZZZ      -3.3103   ZZZZ   -1131.5149
 -----------------------------------------------------------------
 Calculating analytic gradient of the SCF energy
 Gradient of SCF Energy
            1           2           3           4           5           6
    1  -0.0006234   0.0004834   0.0000089  -0.0003156   0.0000370   0.0001114
    2   0.0005722  -0.0002276  -0.0003166   0.0002147   0.0001075  -0.0005315
    3   0.0005491  -0.0007113   0.0001049  -0.0000059   0.0000819  -0.0002977
            7           8           9          10          11          12
    1   0.0000145  -0.0001536  -0.0000783   0.0002258  -0.0001139   0.0001360
    2   0.0002070  -0.0001966   0.0000511   0.0001402   0.0000258  -0.0002633
    3   0.0001379   0.0001127  -0.0001392  -0.0002127  -0.0002278   0.0002243
           13          14          15          16          17          18
    1  -0.0000189  -0.0001104   0.0000426  -0.0000776   0.0001480   0.0000736
    2   0.0000823  -0.0000048  -0.0001448   0.0000175   0.0003881   0.0000999
    3  -0.0000196   0.0000261   0.0001434   0.0002794  -0.0001788   0.0000182
           19          20          21          22          23          24
    1   0.0001702   0.0001037   0.0004995  -0.0000256  -0.0005974  -0.0000047
    2   0.0001236  -0.0000923  -0.0002225   0.0000498  -0.0003783  -0.0000397
    3  -0.0000807   0.0003966   0.0002431  -0.0000545  -0.0000072   0.0000353
           25          26          27          28          29          30
    1   0.0000029   0.0000815  -0.0001154   0.0002132   0.0000769   0.0005142
    2  -0.0000190  -0.0000453   0.0000555  -0.0000081  -0.0000744   0.0000652
    3   0.0001014   0.0000101   0.0000820  -0.0002680  -0.0000210   0.0000434
           31          32          33          34          35          36
    1  -0.0000175  -0.0000706   0.0001073  -0.0000145   0.0001348   0.0002173
    2   0.0001707   0.0000284  -0.0002923   0.0001779  -0.0000932   0.0001237
    3  -0.0002055  -0.0001213  -0.0000411   0.0000604   0.0001009   0.0004490
           37          38          39          40          41          42
    1  -0.0002997  -0.0001974  -0.0001588   0.0000156   0.0000492  -0.0002415
    2   0.0002117  -0.0000091   0.0000021   0.0000292  -0.0001484   0.0002031
    3  -0.0002036  -0.0001503  -0.0001117   0.0001288  -0.0001672  -0.0001355
           43
    1  -0.0002325
    2  -0.0000394
    3   0.0000317
 Max gradient component =       7.113E-04
 RMS gradient           =       2.140E-04
 Gradient time:  CPU 25.31 s  wall 2.16 s
rPathMan2.  file_steps = 952
 IRC --- Status = 2.  Assess steepest descent step
 IRC --- Previous SD length =   0.025000
 IRC --- Point 1 E =    -2013.989111 |G| =   0.002502 G.D1 =   0.000941
 IRC --- Point 2 E =    -2013.989089 |G| =   0.002430 G.D1 =   0.000803
 IRC --- Angle(G1/G2) =  109.28 Deg.  Curvature =  -0.0055
  IRC --- SD step rejected. Backing up half way.
  IRC --- This is backup attempt number            3
 ----------------------------------------------------------------
             Standard Nuclear Orientation (Angstroms)
    I     Atom           X                Y                Z
 ----------------------------------------------------------------
    1      Fe     -1.2254973535    -3.5945829288     0.2664951274
    2      O      -1.6279278612    -2.0905615707     0.0977988671
    3      O      -1.4905641317    -0.9633001092     1.0364972288
    4      H       2.0337153539     2.8878163873     0.8625318347
    5      H       2.2220079642     2.3544767752     2.5696543172
    6      C       1.7264636030     2.1244500972     1.6051924443
    7      H       0.6328234731     2.2102505255     1.7584248085
    8      H       4.1312037381     2.4603693208     0.1300688367
    9      H       4.0919528143     0.9056640719     2.1725189016
   10      C       4.4175656102     1.3906464269     0.0487621269
   11      C       2.1564990256     0.6622368091     1.1524940337
   12      C       3.7422959300     0.5517651918     1.1800180869
   13      H       5.5240646244     1.3308608037     0.1303535702
   14      H      -2.4597611879    -0.7960001577    -1.7716507160
   15      H       2.0640000211    -0.2325099392     3.1675316155
   16      C       1.6081098905    -0.4233871438     2.1753427266
   17      C       1.6100508013     0.3505569253    -0.3128423024
   18      H       4.1152969327     1.5872031371    -2.1632457072
   19      H       0.5088584478    -0.3863755153     2.2923707428
   20      C       3.9873547718     0.8282493555    -1.3448020979
   21      C       0.2438022316     0.1416827364    -0.6313351411
   22      C      -2.6760292290     0.2936388247    -1.7771248353
   23      C       2.5488833609     0.3071558944    -1.4592135765
   24      H      -2.1561966619     0.7494661853    -2.6505053924
   25      H       1.1631157979    -0.1469478589    -3.1593710913
   26      H      -3.7653144494     0.4308958868    -1.9245174896
   27      H       4.0392011221    -0.5153353317     1.0798288660
   28      C       2.2134216233    -0.2984991719    -2.8397995226
   29      H       2.3974244411    -1.4015296149    -2.7805541317
   30      C      -0.9835777874     0.3646124429     0.2660807859
   31      H       1.9017308158    -1.4429224315     1.8524283097
   32      H       4.6475782220    -0.0250235774    -1.6630214802
   33      C      -2.2151324369     0.9420214671    -0.4534678599
   34      H       2.8975542402     0.1119603652    -3.6109242159
   35      H      -4.5345788483     2.3415717201    -1.2784990150
   36      C      -2.8892474952     2.0025978068     0.1818264754
   37      C      -4.0893562754     2.6776692824    -0.3206302728
   38      H      -2.4822522207     2.3841485340     1.1438105205
   39      C      -4.6795445845     3.7253687409     0.3751518081
   40      H      -5.5922107389     4.2288588074    -0.0094397336
   41      H      -4.2647638561     4.0960555606     1.3370323130
   42      H      -0.0184821088    -0.0856209711    -1.6855579158
   43      H      -0.7300647692     0.9646442315     1.1747712436
 ----------------------------------------------------------------
 Molecular Point Group                 C1    NOp =  1
 Largest Abelian Subgroup              C1    NOp =  1
 Nuclear Repulsion Energy =  1729.8599758026 hartrees
 There are       82 alpha and       78 beta electrons
 Applying Cartesian multipole field
    Component          Value
    ---------          -----
     (2,0,0)        1.00000E-12
     (0,2,0)        2.00000E-11
     (0,0,2)       -3.00000E-11
 Nucleus-field energy     =     0.0000000235 hartrees
 Requested basis set is STO-3G
 There are 65 shells and 132 basis functions
 A cutoff of  1.0D-11 yielded   1574 shell pairs
 There are      7077 function pairs (      7164 Cartesian)
 Smallest overlap matrix eigenvalue = 2.07E-01
 Guess MOs from SCF MO coefficient file

 -----------------------------------------------------------------------
  General SCF calculation program by
  Eric Jon Sundstrom, Paul Horn, Yuezhi Mao, Dmitri Zuev, Alec White,
  David Stuck, Shaama M.S., Shane Yost, Joonho Lee, David Small,
  Daniel Levine, Susi Lehtola, Hugh Burton, Evgeny Epifanovsky
 -----------------------------------------------------------------------
 Exchange:  B88      Correlation:  LYP
 Using SG-1 standard quadrature grid
 using 12 threads for integral computing
 -------------------------------------------------------
 OpenMP Integral computing Module                
 Release: version 1.0, May 2013, Q-Chem Inc. Pittsburgh 
 -------------------------------------------------------
 -------------------------------------------------------
 OpenMP BLAS3 based DFT computing Module                
 Release: version 1.0, May 2013, Q-Chem Inc. Pittsburgh 
 -------------------------------------------------------
 A unrestricted SCF calculation will be
 performed using DIIS
 SCF converges when DIIS error is below 1.0e-08
 ---------------------------------------
  Cycle       Energy         DIIS error
 ---------------------------------------
    1   -2013.9890772119      2.40e-05  
    2   -2013.9890986745      7.65e-06  
    3   -2013.9890815554      2.83e-05  
    4   -2013.9890921442      1.71e-05  
    5   -2013.9890986711      8.36e-06  
    6   -2013.9890996097      4.28e-06  
    7   -2013.9890998994      7.30e-07  
    8   -2013.9890999016      6.75e-07  
    9   -2013.9890999078      1.75e-07  
   10   -2013.9890999082      7.37e-08  
   11   -2013.9890999083      4.73e-08  
   12   -2013.9890999083      1.73e-08  
   13   -2013.9890999083      1.51e-08  
   14   -2013.9890999083      6.49e-09  Convergence criterion met
 ---------------------------------------
 SCF time:   CPU 97.57s  wall 8.00s 
<S^2> =          6.385267869
 SCF   energy in the final basis set =    -2013.9890999083
 Total energy in the final basis set =    -2013.9890999083
 
 --------------------------------------------------------------
 
                    Orbital Energies (a.u.)
 --------------------------------------------------------------
 
 Alpha MOs
 -- Occupied --
******* -29.654 -26.208 -26.207 -26.202 -18.970 -18.951 -10.121
-10.118 -10.091 -10.075 -10.052 -10.043 -10.042 -10.036 -10.032
-10.022 -10.016 -10.016  -9.987  -9.980  -9.980  -9.978  -3.842
 -2.684  -2.679  -2.672  -1.265  -1.078  -1.007  -0.968  -0.937
 -0.920  -0.901  -0.872  -0.854  -0.834  -0.817  -0.805  -0.789
 -0.743  -0.736  -0.725  -0.702  -0.690  -0.678  -0.649  -0.643
 -0.634  -0.627  -0.620  -0.607  -0.602  -0.594  -0.583  -0.578
 -0.576  -0.571  -0.566  -0.565  -0.558  -0.554  -0.549  -0.541
 -0.537  -0.532  -0.516  -0.513  -0.510  -0.510  -0.507  -0.500
 -0.499  -0.488  -0.481  -0.478  -0.472  -0.463  -0.456  -0.450
 -0.418  -0.396
 -- Virtual --
 -0.377  -0.372  -0.293  -0.259  -0.249  -0.225  -0.213  -0.145
 -0.118  -0.044  -0.027  -0.022   0.006   0.013   0.022   0.027
  0.050   0.058   0.066   0.073   0.079   0.087   0.089   0.102
  0.110   0.117   0.124   0.128   0.134   0.140   0.148   0.152
  0.167   0.169   0.178   0.182   0.188   0.193   0.202   0.208
  0.221   0.226   0.237   0.242   0.248   0.259   0.271   0.283
  0.330   0.370
 
 Beta MOs
 -- Occupied --
******* -29.617 -26.177 -26.176 -26.175 -18.970 -18.953 -10.120
-10.118 -10.091 -10.076 -10.053 -10.043 -10.042 -10.036 -10.032
-10.022 -10.018 -10.016  -9.987  -9.980  -9.980  -9.978  -3.646
 -2.499  -2.477  -2.473  -1.266  -1.078  -1.007  -0.969  -0.937
 -0.920  -0.903  -0.872  -0.853  -0.836  -0.817  -0.805  -0.789
 -0.741  -0.737  -0.725  -0.701  -0.688  -0.677  -0.649  -0.641
 -0.633  -0.623  -0.620  -0.606  -0.595  -0.593  -0.579  -0.578
 -0.575  -0.570  -0.566  -0.565  -0.558  -0.551  -0.542  -0.541
 -0.533  -0.523  -0.516  -0.512  -0.505  -0.500  -0.483  -0.478
 -0.471  -0.462  -0.456  -0.442  -0.427  -0.401
 -- Virtual --
 -0.372  -0.337  -0.309  -0.309  -0.306  -0.303  -0.278  -0.266
 -0.231  -0.225  -0.198  -0.149  -0.121  -0.030  -0.021  -0.013
  0.007   0.014   0.023   0.026   0.050   0.058   0.065   0.072
  0.078   0.087   0.089   0.101   0.109   0.117   0.121   0.129
  0.134   0.140   0.147   0.152   0.167   0.169   0.178   0.182
  0.188   0.193   0.202   0.208   0.220   0.226   0.235   0.242
  0.248   0.259   0.272   0.283   0.328   0.368
 --------------------------------------------------------------
 
          Ground-State Mulliken Net Atomic Charges

     Atom                 Charge (a.u.)    Spin (a.u.)
  --------------------------------------------------------
      1 Fe                    0.635605       4.382363
      2 O                    -0.190131      -0.121031
      3 O                     0.047760      -0.014602
      4 H                     0.089483      -0.000018
      5 H                     0.108586      -0.000015
      6 C                    -0.213068       0.000439
      7 H                     0.069245      -0.000012
      8 H                     0.097428      -0.000015
      9 H                     0.105583       0.000016
     10 C                    -0.129796       0.000060
     11 C                     0.029697       0.000090
     12 C                    -0.130300      -0.000152
     13 H                     0.115303      -0.000030
     14 H                     0.091816      -0.002496
     15 H                     0.109660      -0.000138
     16 C                    -0.215712      -0.000567
     17 C                     0.021934      -0.002489
     18 H                     0.141117       0.001064
     19 H                     0.067325       0.000053
     20 C                    -0.133689      -0.002092
     21 C                    -0.011769       0.015625
     22 C                    -0.223802       0.002797
     23 C                     0.142451       0.036249
     24 H                     0.111960      -0.007520
     25 H                     0.114248       0.000640
     26 H                     0.119290      -0.000587
     27 H                     0.084308      -0.000030
     28 C                    -0.222645      -0.002278
     29 H                     0.139271       0.001562
     30 C                     0.001137       0.018590
     31 H                     0.081151       0.000023
     32 H                     0.140695       0.002109
     33 C                     0.032745      -0.105039
     34 H                     0.136799       0.000364
     35 H                     0.121994       0.000702
     36 C                    -0.027573      -0.044759
     37 C                    -0.043644      -0.015170
     38 H                     0.113289       0.001900
     39 C                    -0.057358      -0.159841
     40 H                     0.145215       0.006730
     41 H                     0.129650       0.006651
     42 H                     0.119509      -0.000517
     43 H                     0.135231       0.001371
  --------------------------------------------------------
  Sum of atomic charges =     2.000000
  Sum of spin   charges =     4.000000

 -----------------------------------------------------------------
                    Cartesian Multipole Moments
 -----------------------------------------------------------------
    Charge (ESU x 10^10)
                 9.6064
    Dipole Moment (Debye)
         X      -2.2030      Y       0.3236      Z      -3.5049
       Tot       4.1524
    Quadrupole Moments (Debye-Ang)
        XX     -31.9456     XY     -10.1112     YY     -61.3671
        XZ      -9.3151     YZ       1.9975     ZZ     -93.4438
    Octopole Moments (Debye-Ang^2)
       XXX     -65.2467    XXY     122.3747    XYY    -138.8901
       YYY     -76.4257    XXZ     -40.8243    XYZ      -3.4762
       YYZ      19.2707    XZZ      23.3284    YZZ      -8.4393
       ZZZ     -20.4570
    Hexadecapole Moments (Debye-Ang^3)
      XXXX   -3658.8344   XXXY    -433.1804   XXYY    -721.5641
      XYYY    -117.2041   YYYY   -2148.2909   XXXZ    -102.1404
      XXYZ       7.4112   XYYZ     -57.7292   YYYZ      16.0937
      XXZZ    -885.3152   XYZZ      22.9609   YYZZ    -640.0313
      XZZZ     -65.0593   YZZZ      -3.7562   ZZZZ   -1131.4282
 -----------------------------------------------------------------
 Calculating analytic gradient of the SCF energy
 Gradient of SCF Energy
            1           2           3           4           5           6
    1  -0.0006924   0.0005120   0.0000082  -0.0003149   0.0000379   0.0001122
    2   0.0006004  -0.0002656  -0.0003208   0.0002151   0.0001078  -0.0005311
    3   0.0005708  -0.0007104   0.0000930  -0.0000060   0.0000818  -0.0002978
            7           8           9          10          11          12
    1   0.0000154  -0.0001528  -0.0000773   0.0002269  -0.0001128   0.0001370
    2   0.0002071  -0.0001964   0.0000515   0.0001404   0.0000262  -0.0002630
    3   0.0001379   0.0001124  -0.0001391  -0.0002127  -0.0002279   0.0002244
           13          14          15          16          17          18
    1  -0.0000179  -0.0001081   0.0000424  -0.0000771   0.0001498   0.0000751
    2   0.0000828  -0.0000045  -0.0001442   0.0000178   0.0003883   0.0001000
    3  -0.0000193   0.0000273   0.0001431   0.0002788  -0.0001789   0.0000180
           19          20          21          22          23          24
    1   0.0001706   0.0001052   0.0005017  -0.0000247  -0.0005955  -0.0000037
    2   0.0001234  -0.0000922  -0.0002201   0.0000503  -0.0003788  -0.0000400
    3  -0.0000823   0.0003965   0.0002416  -0.0000546  -0.0000076   0.0000346
           25          26          27          28          29          30
    1   0.0000044   0.0000825  -0.0001145   0.0002148   0.0000790   0.0005165
    2  -0.0000197  -0.0000455   0.0000558  -0.0000083  -0.0000747   0.0000676
    3   0.0001014   0.0000099   0.0000821  -0.0002682  -0.0000214   0.0000425
           31          32          33          34          35          36
    1  -0.0000163  -0.0000687   0.0001084  -0.0000132   0.0001346   0.0002172
    2   0.0001713   0.0000285  -0.0002906   0.0001779  -0.0000933   0.0001245
    3  -0.0002060  -0.0001213  -0.0000425   0.0000601   0.0001011   0.0004488
           37          38          39          40          41          42
    1  -0.0002997  -0.0001973  -0.0001593   0.0000151   0.0000490  -0.0002391
    2   0.0002114  -0.0000085   0.0000022   0.0000290  -0.0001481   0.0002035
    3  -0.0002036  -0.0001506  -0.0001115   0.0001290  -0.0001673  -0.0001363
           43
    1  -0.0002307
    2  -0.0000375
    3   0.0000301
 Max gradient component =       7.104E-04
 RMS gradient           =       2.175E-04
 Gradient time:  CPU 25.38 s  wall 2.17 s
rPathMan2.  file_steps = 952
 IRC --- Status = 2.  Assess steepest descent step
 IRC --- Previous SD length =   0.012500
 IRC --- Point 1 E =    -2013.989111 |G| =   0.002502 G.D1 =   0.000941
 IRC --- Point 2 E =    -2013.989100 |G| =   0.002470 G.D1 =   0.000870
 IRC --- Angle(G1/G2) =  110.63 Deg.  Curvature =  -0.0057
  IRC --- SD step rejected. Backing up half way.
  IRC --- This is backup attempt number            4
 IRC -- too many backups (>3)
 IRC -- please re-run with smaller step, or
 IRC -- run a geom opt from this point

 Q-Chem fatal error occurred in module 0, line  259:

 IRC backup failure

