
Running Job 1 of 1 sys_1_car_1_diox_opt_vdz_mgga.in
qchem sys_1_car_1_diox_opt_vdz_mgga.in_27280.0 /scr/c295_lal/156927/qchem27280/ 1
/usr/software/qchem_511/exe/qcprog.exe_s sys_1_car_1_diox_opt_vdz_mgga.in_27280.0 /scr/c295_lal/156927/qchem27280/
Check license passed

                  Welcome to Q-Chem
     A Quantum Leap Into The Future Of Chemistry


 Q-Chem 5.1, Q-Chem, Inc., Pleasanton, CA (2018)

 Yihan Shao,  Zhengting Gan,  E. Epifanovsky,  A. T. B. Gilbert,  M. Wormit,  
 J. Kussmann,  A. W. Lange,  A. Behn,  Jia Deng,  Xintian Feng,  D. Ghosh,  
 M. Goldey,  P. R. Horn,  L. D. Jacobson,  I. Kaliman,  T. Kus,  A. Landau,  
 Jie Liu,  E. I. Proynov,  R. M. Richard,  R. P. Steele,  E. J. Sundstrom,  
 H. L. Woodcock III,  P. M. Zimmerman,  D. Zuev,  B. Albrecht,  E. Alguire,  
 S. A. Baeppler,  D. Barton,  Z. Benda,  Y. A. Bernard,  E. J. Berquist,  
 K. B. Bravaya,  H. Burton,  D. Casanova,  Chun-Min Chang,  Yunqing Chen,  
 A. Chien,  K. D. Closser,  M. P. Coons,  S. Coriani,  S. Dasgupta,  
 A. L. Dempwolff,  M. Diedenhofen,  Hainam Do,  R. G. Edgar,  Po-Tung Fang,  
 S. Faraji,  S. Fatehi,  Qingguo Feng,  K. D. Fenk,  J. Fosso-Tande,  
 Qinghui Ge,  A. Ghysels,  G. Gidofalvi,  J. Gomes,  J. Gonthier,  A. Gunina,  
 D. Hait,  M. W. D. Hanson-Heine,  P. H. P. Harbach,  A. W. Hauser,  
 J. E. Herr,  E. G. Hohenstein,  Z. C. Holden,  Kerwin Hui,  B. C. Huynh,  
 T.-C. Jagau,  Hyunjun Ji,  B. Kaduk,  K. Khistyaev,  Jaehoon Kim,  
 P. Klunzinger,  K. Koh,  D. Kosenkov,  L. Koulias,  T. Kowalczyk,  
 C. M. Krauter,  A. Kunitsa,  Ka Un Lao,  A. Laurent,  K. V. Lawler,  
 Joonho Lee,  D. Lefrancois,  S. Lehtola,  D. S. Levine,  Yi-Pei Li,  
 You-Sheng Lin,  Fenglai Liu,  E. Livshits,  A. Luenser,  P. Manohar,  
 E. Mansoor,  S. F. Manzer,  Shan-Ping Mao,  Yuezhi Mao,  N. Mardirossian,  
 A. V. Marenich,  T. Markovich,  L. A. Martinez-Martinez,  S. A. Maurer,  
 N. J. Mayhall,  S. C. McKenzie,  J.-M. Mewes,  A. F. Morrison,  
 J. W. Mullinax,  K. Nanda,  T. S. Nguyen-Beck,  R. Olivares-Amaya,  
 J. A. Parkhill,  T. M. Perrine,  F. Plasser,  P. Pokhilko,  S. Prager,  
 A. Prociuk,  E. Ramos,  D. R. Rehn,  F. Rob,  M. Schneider,  N. Sergueev,  
 S. M. Sharada,  S. Sharma,  D. W. Small,  T. Stauch,  T. Stein,  
 Yu-Chuan Su,  A. J. W. Thom,  A. Tkatchenko,  T. Tsuchimochi,  N. M. Tubman,  
 L. Vogt,  M. L. Vidal,  O. Vydrov,  M. A. Watson,  J. Wenzel,  
 M. de Wergifosse,  T. A. Wesolowski,  A. White,  J. Witte,  A. Yamada,  
 Jun Yang,  K. Yao,  S. Yeganeh,  S. R. Yost,  Zhi-Qiang You,  A. Zech,  
 Igor Ying Zhang,  Xing Zhang,  Yan Zhao,  Ying Zhu,  B. R. Brooks,  
 G. K. L. Chan,  C. J. Cramer,  M. S. Gordon,  W. J. Hehre,  A. Klamt,  
 M. W. Schmidt,  C. D. Sherrill,  D. G. Truhlar,  A. Aspuru-Guzik,  R. Baer,  
 A. T. Bell,  N. A. Besley,  Jeng-Da Chai,  A. E. DePrince, III,  
 R. A. DiStasio Jr.,  A. Dreuw,  B. D. Dunietz,  T. R. Furlani,  
 Chao-Ping Hsu,  Yousung Jung,  Jing Kong,  D. S. Lambrecht,  WanZhen Liang,  
 C. Ochsenfeld,  V. A. Rassolov,  L. V. Slipchenko,  J. E. Subotnik,  
 T. Van Voorhis,  J. M. Herbert,  A. I. Krylov,  P. M. W. Gill,  M. Head-Gordon

 Contributors to earlier versions of Q-Chem not listed above: 
 R. D. Adamson,  B. Austin,  J. Baker,  G. J. O. Beran,  K. Brandhorst,  
 S. T. Brown,  E. F. C. Byrd,  A. K. Chakraborty,  C.-L. Cheng,  
 Siu Hung Chien,  D. M. Chipman,  D. L. Crittenden,  H. Dachsel,  
 R. J. Doerksen,  A. D. Dutoi,  L. Fusti-Molnar,  W. A. Goddard III,  
 A. Golubeva-Zadorozhnaya,  S. R. Gwaltney,  G. Hawkins,  A. Heyden,  
 S. Hirata,  G. Kedziora,  F. J. Keil,  C. Kelley,  Jihan Kim,  R. A. King,  
 R. Z. Khaliullin,  P. P. Korambath,  W. Kurlancheek,  A. M. Lee,  M. S. Lee,  
 S. V. Levchenko,  Ching Yeh Lin,  D. Liotard,  R. C. Lochan,  I. Lotan,  
 P. E. Maslen,  N. Nair,  D. P. O'Neill,  D. Neuhauser,  E. Neuscamman,  
 C. M. Oana,  R. Olson,  B. Peters,  R. Peverati,  P. A. Pieniazek,  
 Y. M. Rhee,  J. Ritchie,  M. A. Rohrdanz,  E. Rosta,  N. J. Russ,  
 H. F. Schaefer III,  N. E. Schultz,  N. Shenvi,  A. C. Simmonett,  A. Sodt,  
 D. Stuck,  K. S. Thanthiriwatte,  V. Vanovschi,  Tao Wang,  A. Warshel,  
 C. F. Williams,  Q. Wu,  X. Xu,  W. Zhang

 Please cite Q-Chem as follows:
 Y. Shao et al., Mol. Phys. 113, 184-215 (2015)
 DOI: 10.1080/00268976.2014.952696

 Q-Chem 5.1.1 for Intel X86 EM64T Linux

 Parts of Q-Chem use Armadillo 8.300.2 (Tropical Shenanigans).
 http://arma.sourceforge.net/

 Q-Chem begins on Tue Nov 27 11:36:15 2018  

Host: cub-0-29.local
0

     Scratch files written to /scr/c295_lal/156927/qchem27280//
 Aug318 |scratch|qcdevops|jenkins|workspace|build_RNUM -1
Processing $rem in /usr/software/qchem_511/config/preferences.
 MEM_TOTAL  2000 
Input Ideriv = 2
Curr. Ideriv = -1
Max.  Ideriv = 2
Input Ideriv = 1
Curr. Ideriv = 2
Max.  Ideriv = 1

Checking the input file for inconsistencies... 	...done.

--------------------------------------------------------------
User input:
--------------------------------------------------------------
$molecule
2 5
Fe         0.29287       -0.25576        0.08878
N         -1.56882       -0.66804       -0.22976
C         -2.39863       -1.31300        0.62402
H         -2.16065       -1.66058        1.62244
N         -3.60396       -1.44647        0.03653
H         -4.41965       -1.88098        0.45976
C         -3.56631       -0.89363       -1.23782
H         -4.41991       -0.90693       -1.90388
C         -2.29468       -0.40399       -1.40097
H         -1.85948        0.08398       -2.26416
N          2.19745        0.01228       -0.11522
C          3.17211       -0.79462        0.36699
H          3.03054       -1.68281        0.97106
N          4.36794       -0.31130       -0.02465
H          5.27110       -0.72035        0.19968
C          4.18427        0.83553       -0.78739
H          5.01100        1.38743       -1.21760
C          2.82861        1.03676       -0.84119
H          2.28211        1.81101       -1.36714
N          0.00774        1.74392        0.50832
H          0.92744        2.09498        0.80934
C         -0.58212        2.38033       -0.65487
H          0.00031        2.59636       -1.54472
C         -1.88230        2.63845       -0.34091
H         -2.65550        3.08863       -0.95343
N         -2.16064        2.24930        0.99166
C         -1.06316        1.78085        1.50072
H         -0.90369        1.45331        2.52439
H         -4.04064       -5.89730        2.78914
H         -3.40022       -3.37626        2.96365
H         -3.26263       -5.68246        4.35088
C         -3.06527       -6.00113        3.30995
C         -2.32501       -3.60597        3.08272
H         -3.42346       -8.12847        3.56241
H         -2.09939       -3.44819        4.15443
C         -2.60410       -7.45399        3.26389
C         -2.07631       -5.03950        2.69403
H         -1.76367       -2.88245        2.48193
H         -2.95493       -7.57268        1.14566
C         -2.12613       -7.77259        1.85259
H         -1.78682       -7.61214        3.99220
C         -1.07370       -5.46018        1.87301
H         -1.86740       -8.84026        1.74163
O         -0.52168       -3.30639        0.65142
H         -1.65507       -6.50901       -0.59059
C         -0.90711       -6.92333        1.43099
C         -0.80288       -7.01726       -0.10777
C         -0.01818       -4.53386        1.36315
H          0.29970       -3.40983        3.24098
O          0.64361       -2.50006        1.34136
C          0.82204       -3.63532        2.29587
H         -0.81570       -8.07828       -0.41292
C          0.37945       -7.50499        2.05601
H          0.30788       -7.54530        3.15595
H          0.12639       -6.57709       -0.50220
H          0.66542       -5.04916        0.67390
H          0.56360       -8.52835        1.68439
H          1.80314       -5.52393        4.00504
C          2.24879       -3.99343        2.54669
H          2.30582       -3.97824        4.70489
H          1.26488       -6.89557        1.80134
C          2.49427       -4.67195        3.86375
H          2.84651       -3.20628        0.69742
C          3.18961       -3.71661        1.60371
H          3.51881       -5.05440        3.96685
C          4.60811       -4.00223        1.68014
H          4.98594       -4.48393        2.58792
H          5.15028       -3.21763       -0.23117
C          5.48188       -3.70095        0.69339
H          6.54727       -3.92683        0.77746
$end

$rem
BASIS = VDZ
METHOD  = B97M-rV
JOBTYPE = OPT
MAX_SCF_CYCLES = 500
SCF_ALGORITHM = DIIS_GDM
$end
--------------------------------------------------------------
 ----------------------------------------------------------------
             Standard Nuclear Orientation (Angstroms)
    I     Atom           X                Y                Z
 ----------------------------------------------------------------
    1      Fe      2.3214614212     0.1847326988    -0.1631816745
    2      N       1.7188804150     1.9706042259    -0.5931714485
    3      C       0.7126723276     2.6398260873     0.0177178303
    4      H       0.1208168281     2.2965243829     0.8580391026
    5      N       0.5645633283     3.8377066886    -0.5813856160
    6      H      -0.1099896625     4.5496024617    -0.3140741501
    7      C       1.4798876624     3.9568753529    -1.6201337585
    8      H       1.5278130490     4.8314962281    -2.2566769665
    9      C       2.2031960597     2.7905896497    -1.6234094148
   10      H       2.9986507878     2.4856698450    -2.2919050583
   11      N       2.9565707949    -1.6387497972    -0.2746899168
   12      C       2.2172734173    -2.7543079087    -0.0684238339
   13      H       1.1760466061    -2.7891452581     0.2289937056
   14      N       2.9920035118    -3.8347508446    -0.2907430724
   15      H       2.6924379411    -4.8024005648    -0.2055472692
   16      C       4.2692963892    -3.4294765340    -0.6581687980
   17      H       5.0578076727    -4.1330788578    -0.8955513429
   18      C       4.2454971661    -2.0581697900    -0.6457833503
   19      H       5.0398991625    -1.3675355073    -0.9040438209
   20      N       4.0175519176     0.7637966945     0.8585790352
   21      H       4.4091903537    -0.1024727909     1.2534217483
   22      C       4.8711271113     1.5089533818    -0.0481262001
   23      H       5.4449020233     1.0167715117    -0.8267570790
   24      C       4.7970945611     2.8151453345     0.3314085318
   25      H       5.2762707362     3.6819169659    -0.1099282499
   26      N       3.9765979911     2.9563408633     1.4766171959
   27      C       3.5667944121     1.7725124026     1.8137537242
   28      H       2.9727088035     1.5084627772     2.6843589656
   29      H      -4.5228780067     3.4088854246     0.6480418565
   30      H      -2.1070437292     3.1722116998     1.5988123283
   31      H      -4.6697145023     2.5934555916     2.1985259242
   32      C      -4.6153775927     2.4031976893     1.1100011270
   33      C      -2.1772857869     2.0693013460     1.6397476178
   34      H      -6.7458800663     2.4020647222     0.6874262466
   35      H      -2.3203810703     1.8152387954     2.7071450120
   36      C      -5.8842204931     1.7183638982     0.6133706359
   37      C      -3.3587130040     1.6151942487     0.8236861361
   38      H      -1.2204586087     1.6638381061     1.2938954496
   39      H      -5.4044187273     2.1577163687    -1.4362212772
   40      C      -5.6687762531     1.2712147182    -0.8272439417
   41      H      -6.1179704971     0.8487701561     1.2556798576
   42      C      -3.3315220893     0.6032103304    -0.0881370475
   43      H      -6.5910782549     0.8510677116    -1.2654312003
   44      O      -0.8460626902     0.4690323010    -0.5783486392
   45      H      -3.6558283338     1.1391547592    -2.7555233027
   46      C      -4.5381809264     0.2281247827    -0.9640520625
   47      C      -4.1362534846     0.1921167887    -2.4555703598
   48      C      -2.1292517554    -0.2616907375    -0.2847092210
   49      H      -1.5991794062    -0.4947497891     1.8496392574
   50      O      -0.1059277255    -0.5870447930     0.3277349453
   51      C      -1.4321309382    -0.9954920030     0.8809959937
   52      H      -5.0385503316     0.0510094212    -3.0760487447
   53      C      -5.0577044566    -1.1663683482    -0.5521064360
   54      H      -5.4451610866    -1.1607352794     0.4805894500
   55      H      -3.4460703134    -0.6323535715    -2.6938206524
   56      H      -2.2849713557    -0.9814000045    -1.1006005063
   57      H      -5.8710821549    -1.4920553211    -1.2241354921
   58      H      -3.5601282012    -2.3558751177     1.9162024760
   59      C      -1.6037489851    -2.4724689338     1.0069142158
   60      H      -2.2423463862    -2.6409391184     3.0624242628
   61      H      -4.2592919004    -1.9279433655    -0.6048009640
   62      C      -2.6021167075    -2.8931080045     2.0469245656
   63      H      -0.1979679411    -2.8372507669    -0.5054970128
   64      C      -0.8962422805    -3.3053387354     0.1965161521
   65      H      -2.8190713356    -3.9696932211     2.0251350096
   66      C      -0.9478271362    -4.7533047104     0.1793080938
   67      H      -1.6138813608    -5.2511175678     0.8916346033
   68      H       0.4652332386    -5.0604449169    -1.3928167917
   69      C      -0.2152910970    -5.5138421511    -0.6650217982
   70      H      -0.2728600284    -6.6045998825    -0.6561459369
 ----------------------------------------------------------------
 Molecular Point Group                 C1    NOp =  1
 Largest Abelian Subgroup              C1    NOp =  1
 Nuclear Repulsion Energy =  4341.2407948389 hartrees
 There are      136 alpha and      132 beta electrons
 Requested basis set is VDZ
 There are 246 shells and 390 basis functions

 Total QAlloc Memory Limit   2000 MB
 Mega-Array Size       188 MB
 MEM_STATIC part       192 MB
 A cutoff of  1.0D-12 yielded  20143 shell pairs
 There are     52025 function pairs (     52611 Cartesian)
 
 -------------------------------------------------------
 OpenMP Integral Computing Module                       
 Release: version 1.0, May 2013, Q-Chem Inc. Pittsburgh 
 -------------------------------------------------------
 Integral Job Info:
 Integral job number is                      11
 Integral operator is                         1
 short-range coefficients                     0
 long-range coefficients              100000000
 Omega coefficients                           0
 if combine SR and LR in K                    0
 Integral screening is                        0
 Integral computing path is                   2
 max size of driver memory is            800000
 size of driver memory is                593474
 size of scratch memory is             29634545
 max col of scratch BK array               1296
 max len of scratch array in speh3          155
 max len of scratch index in speh4           18
 max int batch size is                      520
 min int batch size is                       52
 fixed nKL is                                45
 max L of basis functions is                  2
 order of int derivative is                   0
 number of shells is                        246
 number of basis is                         392
 number of cartesian basis is               392
 number of contracted shell pairs         20143
 number of primitive shell pairs          52540
 maxK2 (contraction) of shell pair           36
 max number of K2 of shell pair               1
 max number of CS2 of shell pair           5162
 max number of PS2 of shell pair          11335
 mem total for path MDJ                  693512
 -------------------------------------------------------
 Smallest overlap matrix eigenvalue = 7.52E-04

 Scale SEOQF with 1.000000e-02/1.000000e-02/1.000000e-01

 Standard Electronic Orientation quadrupole field applied
 Nucleus-field energy     =    -0.0000000104 hartrees
 Guess from superposition of atomic densities
 Warning:  Energy on first SCF cycle will be non-variational
 SAD guess density has 270.000001 electrons

 -----------------------------------------------------------------------
  General SCF calculation program by
  Eric Jon Sundstrom, Paul Horn, Yuezhi Mao, Dmitri Zuev, Alec White,
  David Stuck, Shaama M.S., Shane Yost, Joonho Lee, David Small,
  Daniel Levine, Susi Lehtola, Hugh Burton, Evgeny Epifanovsky
 -----------------------------------------------------------------------
 Exchange:  B97M-V      Correlation:  B97M-V
 Using SG-2 standard quadrature grid
 Nonlocal Correlation:  rVV10 with C = 0.0100 and b = 6.00 and scale = 1.00000
 Grid used for NLC:  SG-1 standard quadrature
 using 12 threads for integral computing
 -------------------------------------------------------
 OpenMP Integral computing Module                
 Release: version 1.0, May 2013, Q-Chem Inc. Pittsburgh 
 -------------------------------------------------------
 -------------------------------------------------------
 OpenMP BLAS3 based DFT computing Module                
 Release: version 1.0, May 2013, Q-Chem Inc. Pittsburgh 
 -------------------------------------------------------
 -------------------------------------------------------
 OpenMP BLAS3 based DFT computing Module                
 Release: version 1.0, May 2013, Q-Chem Inc. Pittsburgh 
 -------------------------------------------------------
 -------------------------------------------------------
 OpenMP BLAS3 based DFT computing Module                
 Release: version 1.0, May 2013, Q-Chem Inc. Pittsburgh 
 -------------------------------------------------------
 Nonlocal correlation = 0.946626625293
 A unrestricted SCF calculation will be
 performed using DIIS, GDM
 SCF converges when RMS gradient is below 1.0e-08
 ---------------------------------------
  Cycle       Energy         DIIS error
 ---------------------------------------
 Nonlocal correlation = 9.950091027966e-01
    1   -2721.2391178141      2.51e-02  
    2   -2713.7289371495      2.40e-03  Done DIIS. Switching to GDM
 ---------------------------------------
  Cycle       Energy        RMS Gradient
 ---------------------------------------
 Nonlocal correlation = 9.910650737330e-01
    1   -2713.7289371495      2.59e-01   Descent step
 Nonlocal correlation = 9.857506202458e-01
    2   -2714.0924047001      6.61e-02   Descent step
 Nonlocal correlation = 9.823663516749e-01
    3   -2714.2228155133      4.42e-02   Normal BFGS step
 Nonlocal correlation = 9.842118679692e-01
    4   -2714.2160178986      7.97e-02  Line search: overstep
 Nonlocal correlation = 9.836806779593e-01
    5   -2714.2400584133      2.59e-02   Normal BFGS step
 Nonlocal correlation = 9.841339089426e-01
    6   -2714.2426155120      1.89e-02   Normal BFGS step
 Nonlocal correlation = 9.841258216067e-01
    7   -2714.2455038252      1.23e-02   Normal BFGS step
 Nonlocal correlation = 9.840665596010e-01
    8   -2714.2458229517      1.30e-02   Normal BFGS step
 Nonlocal correlation = 9.840553404267e-01
    9   -2714.2467559571      1.42e-02   Normal BFGS step
 Nonlocal correlation = 9.840558849030e-01
   10   -2714.2472296733      1.32e-02   Normal BFGS step
 Nonlocal correlation = 9.841148411327e-01
   11   -2714.2485499017      1.84e-02   Normal BFGS step
 Nonlocal correlation = 9.841417746518e-01
   12   -2714.2498159184      1.70e-02   Normal BFGS step
 Nonlocal correlation = 9.841615733151e-01
   13   -2714.2510923948      1.52e-02   Normal BFGS step
 Nonlocal correlation = 9.841502958231e-01
   14   -2714.2522488840      1.34e-02   Normal BFGS step
 Nonlocal correlation = 9.840845517540e-01
   15   -2714.2533977041      8.13e-03   Normal BFGS step
 Nonlocal correlation = 9.841185021104e-01
   16   -2714.2541355236      5.45e-03   Normal BFGS step
 Nonlocal correlation = 9.841278576226e-01
   17   -2714.2543707608      4.20e-03   Normal BFGS step
 Nonlocal correlation = 9.840978290381e-01
   18   -2714.2545037464      3.49e-03   Normal BFGS step
 Nonlocal correlation = 9.840866097398e-01
   19   -2714.2545378715      3.54e-03   Normal BFGS step
 Nonlocal correlation = 9.840978871054e-01
   20   -2714.2546047891      3.41e-03   Normal BFGS step
 Nonlocal correlation = 9.840651976172e-01
   21   -2714.2546980841      2.99e-03   Normal BFGS step
 Nonlocal correlation = 9.840414376074e-01
   22   -2714.2547949382      3.39e-03   Normal BFGS step
 Nonlocal correlation = 9.840500282168e-01
   23   -2714.2548578801      3.68e-03   Normal BFGS step
 Nonlocal correlation = 9.840530598631e-01
   24   -2714.2548924808      2.73e-03   Normal BFGS step
 Nonlocal correlation = 9.840510972254e-01
   25   -2714.2549081459      1.40e-03   Normal BFGS step
 Nonlocal correlation = 9.840446034603e-01
   26   -2714.2549120721      7.99e-04   Normal BFGS step
 Nonlocal correlation = 9.840469185642e-01
   27   -2714.2549160560      5.12e-04   Normal BFGS step
 Nonlocal correlation = 9.840491912205e-01
   28   -2714.2549166049      3.21e-04   Normal BFGS step
 Nonlocal correlation = 9.840483420277e-01
   29   -2714.2549177114      2.31e-04   Normal BFGS step
 Nonlocal correlation = 9.840488049058e-01
   30   -2714.2549175949      3.12e-04  Line search: overstep
 Nonlocal correlation = 9.840467754988e-01
   31   -2714.2549179751      1.09e-04   Normal BFGS step
 Nonlocal correlation = 9.840471120056e-01
   32   -2714.2549180314      7.61e-05   Normal BFGS step
 Nonlocal correlation = 9.840479107853e-01
   33   -2714.2549180563      6.32e-05   Normal BFGS step
 Nonlocal correlation = 9.840473728949e-01
   34   -2714.2549180774      2.13e-05   Normal BFGS step
 Nonlocal correlation = 9.840473497320e-01
   35   -2714.2549180808      2.58e-05   Normal BFGS step
 Nonlocal correlation = 9.840475562718e-01
   36   -2714.2549180834      1.77e-05   Normal BFGS step
 Nonlocal correlation = 9.840474997442e-01
   37   -2714.2549180837      1.32e-05   Normal BFGS step
 Nonlocal correlation = 9.840473919473e-01
   38   -2714.2549180844      4.19e-06   Normal BFGS step
 Nonlocal correlation = 9.840474743641e-01
   39   -2714.2549180843      4.53e-06   Normal BFGS step
 Nonlocal correlation = 9.840474684913e-01
   40   -2714.2549180845      9.54e-07   Normal BFGS step
 Nonlocal correlation = 9.840474654031e-01
   41   -2714.2549180846      1.50e-06   Normal BFGS step
 Nonlocal correlation = 9.840474655436e-01
   42   -2714.2549180846      4.03e-07   Normal BFGS step
 Nonlocal correlation = 9.840474674092e-01
   43   -2714.2549180846      4.63e-07   Normal BFGS step
 Nonlocal correlation = 9.840474667336e-01
   44   -2714.2549180846      1.15e-07   Normal BFGS step
 Nonlocal correlation = 9.840474663252e-01
   45   -2714.2549180846      1.11e-07   Normal BFGS step
 Nonlocal correlation = 9.840474676258e-01
   46   -2714.2549180846      7.29e-08   Normal BFGS step
 Nonlocal correlation = 9.840474675293e-01
   47   -2714.2549180846      1.12e-07   Normal BFGS step
 Nonlocal correlation = 9.840474666880e-01
   48   -2714.2549180846      4.28e-08   Normal BFGS step
  /scratch/qcdevops/jenkins/workspace/build_qchem_linux_distrib/tags/qc511/qchem/libgscf/libgscf/opt/gdm.C::WARNING energy changes are now smaller than effective accuracy.
  /scratch/qcdevops/jenkins/workspace/build_qchem_linux_distrib/tags/qc511/qchem/libgscf/libgscf/opt/gdm.C::        calculation will continue, but THRESH should be increased
  /scratch/qcdevops/jenkins/workspace/build_qchem_linux_distrib/tags/qc511/qchem/libgscf/libgscf/opt/gdm.C::        or SCF_CONVERGENCE decreased. 
  /scratch/qcdevops/jenkins/workspace/build_qchem_linux_distrib/tags/qc511/qchem/libgscf/libgscf/opt/gdm.C::        effective_thresh = 6.86e-09
 Nonlocal correlation = 9.840474669984e-01
   49   -2714.2549180845      3.55e-08   Normal BFGS step
 Nonlocal correlation = 9.840474676024e-01
   50   -2714.2549180846      2.14e-08   Normal BFGS step
  /scratch/qcdevops/jenkins/workspace/build_qchem_linux_distrib/tags/qc511/qchem/libgscf/libgscf/opt/gdm.C::WARNING energy changes are now smaller than effective accuracy.
  /scratch/qcdevops/jenkins/workspace/build_qchem_linux_distrib/tags/qc511/qchem/libgscf/libgscf/opt/gdm.C::        calculation will continue, but THRESH should be increased
  /scratch/qcdevops/jenkins/workspace/build_qchem_linux_distrib/tags/qc511/qchem/libgscf/libgscf/opt/gdm.C::        or SCF_CONVERGENCE decreased. 
  /scratch/qcdevops/jenkins/workspace/build_qchem_linux_distrib/tags/qc511/qchem/libgscf/libgscf/opt/gdm.C::        effective_thresh = 6.86e-09
 Nonlocal correlation = 9.840474673546e-01
   51   -2714.2549180846      2.15e-08   Normal BFGS step
 Nonlocal correlation = 9.840474670163e-01
   52   -2714.2549180846      1.74e-08   Normal BFGS step
 Nonlocal correlation = 9.840474670126e-01
   53   -2714.2549180846      1.84e-08   Normal BFGS step
  /scratch/qcdevops/jenkins/workspace/build_qchem_linux_distrib/tags/qc511/qchem/libgscf/libgscf/opt/gdm.C::WARNING energy changes are now smaller than effective accuracy.
  /scratch/qcdevops/jenkins/workspace/build_qchem_linux_distrib/tags/qc511/qchem/libgscf/libgscf/opt/gdm.C::        calculation will continue, but THRESH should be increased
  /scratch/qcdevops/jenkins/workspace/build_qchem_linux_distrib/tags/qc511/qchem/libgscf/libgscf/opt/gdm.C::        or SCF_CONVERGENCE decreased. 
  /scratch/qcdevops/jenkins/workspace/build_qchem_linux_distrib/tags/qc511/qchem/libgscf/libgscf/opt/gdm.C::        effective_thresh = 6.86e-09
 Nonlocal correlation = 9.840474671084e-01
   54   -2714.2549180846      1.43e-08   Normal BFGS step
 Nonlocal correlation = 9.840474670842e-01
   55   -2714.2549180846      1.30e-08   Normal BFGS step
 Nonlocal correlation = 9.840474670413e-01
   56   -2714.2549180846      8.60e-09  Convergence criterion met
 ---------------------------------------
 SCF time:   CPU 154913.27s  wall 12981.00s 
<S^2> =          6.010258141
 SCF   energy in the final basis set =    -2714.2549180846
 Total energy in the final basis set =    -2714.2549180846
 
 --------------------------------------------------------------
 
                    Orbital Energies (a.u.)
 --------------------------------------------------------------
 
 Alpha MOs
 -- Occupied --
******* -30.397 -26.139 -26.131 -26.116 -19.442 -19.428 -14.656
-14.655 -14.644 -14.626 -14.611 -14.575 -10.514 -10.507 -10.497
-10.474 -10.471 -10.470 -10.469 -10.458 -10.455 -10.454 -10.450
-10.413 -10.397 -10.395 -10.389 -10.380 -10.377 -10.376 -10.374
-10.370 -10.353 -10.334 -10.334 -10.332 -10.331  -3.836  -2.594
 -2.575  -2.541  -1.302  -1.271  -1.257  -1.241  -1.127  -1.113
 -1.109  -1.104  -1.017  -1.001  -0.990  -0.977  -0.970  -0.954
 -0.944  -0.922  -0.890  -0.864  -0.858  -0.854  -0.847  -0.838
 -0.829  -0.823  -0.817  -0.815  -0.807  -0.797  -0.792  -0.784
 -0.773  -0.755  -0.736  -0.719  -0.709  -0.705  -0.692  -0.688
 -0.683  -0.681  -0.677  -0.674  -0.664  -0.663  -0.662  -0.657
 -0.655  -0.650  -0.648  -0.642  -0.628  -0.625  -0.623  -0.614
 -0.604  -0.598  -0.592  -0.588  -0.586  -0.584  -0.579  -0.574
 -0.571  -0.568  -0.564  -0.563  -0.556  -0.554  -0.552  -0.542
 -0.541  -0.537  -0.534  -0.530  -0.521  -0.517  -0.514  -0.512
 -0.507  -0.498  -0.494  -0.487  -0.485  -0.480  -0.478  -0.474
 -0.466  -0.454  -0.452  -0.452  -0.447  -0.435  -0.412  -0.399
 -- Virtual --
 -0.309  -0.286  -0.272  -0.260  -0.256  -0.237  -0.235  -0.219
 -0.212  -0.208  -0.185  -0.174  -0.170  -0.162  -0.153  -0.147
 -0.140  -0.135  -0.125  -0.122  -0.118  -0.114  -0.110  -0.106
 -0.103  -0.092  -0.091  -0.090  -0.087  -0.086  -0.081  -0.076
 -0.076  -0.069  -0.066  -0.064  -0.060  -0.059  -0.054  -0.049
 -0.047  -0.043  -0.039  -0.036  -0.033  -0.027  -0.025  -0.020
 -0.011  -0.006  -0.005  -0.003   0.003   0.006   0.014   0.017
  0.019   0.023   0.029   0.035   0.043   0.046   0.049   0.059
  0.063   0.067   0.075   0.080   0.088   0.101   0.102   0.107
  0.110   0.113   0.123   0.127   0.132   0.139   0.149   0.158
  0.164   0.167   0.177   0.187   0.197   0.207   0.223   0.232
  0.235   0.242   0.246   0.251   0.254   0.256   0.259   0.266
  0.269   0.273   0.277   0.279   0.283   0.289   0.292   0.299
  0.303   0.309   0.313   0.316   0.320   0.323   0.334   0.337
  0.338   0.344   0.349   0.354   0.357   0.363   0.370   0.374
  0.380   0.393   0.405   0.410   0.411   0.417   0.422   0.430
  0.433   0.438   0.439   0.444   0.449   0.454   0.459   0.462
  0.463   0.466   0.472   0.474   0.475   0.478   0.486   0.488
  0.492   0.497   0.500   0.505   0.509   0.515   0.516   0.518
  0.523   0.525   0.527   0.529   0.532   0.535   0.538   0.541
  0.544   0.547   0.549   0.551   0.556   0.560   0.566   0.567
  0.573   0.575   0.578   0.584   0.586   0.590   0.592   0.597
  0.602   0.603   0.611   0.612   0.616   0.620   0.624   0.626
  0.632   0.642   0.650   0.653   0.659   0.663   0.672   0.675
  0.684   0.691   0.699   0.703   0.711   0.717   0.728   0.735
  0.741   0.755   0.759   0.767   0.779   0.793   0.801   0.803
  0.810   0.817   0.821   0.844   0.857   0.861   0.872   0.882
  0.902   0.913   0.915   0.932   0.945   0.950   0.964   0.973
  0.981   0.989   1.003   1.006   1.013   1.035   1.048   1.049
  1.053   1.069   1.079   1.091   1.115   1.121   1.137   1.150
  1.170   1.194   1.198   1.202   1.228   1.243   1.280   1.318
  1.320   1.339   1.395   1.435   1.462   1.719
 
 Beta MOs
 -- Occupied --
******* -30.318 -26.067 -26.061 -26.057 -19.441 -19.428 -14.655
-14.654 -14.643 -14.626 -14.611 -14.575 -10.514 -10.506 -10.496
-10.474 -10.471 -10.470 -10.469 -10.458 -10.455 -10.454 -10.450
-10.413 -10.397 -10.395 -10.389 -10.380 -10.377 -10.376 -10.374
-10.370 -10.353 -10.334 -10.334 -10.332 -10.331  -3.649  -2.381
 -2.380  -2.369  -1.302  -1.270  -1.256  -1.240  -1.126  -1.112
 -1.107  -1.103  -1.017  -1.001  -0.989  -0.976  -0.969  -0.954
 -0.944  -0.922  -0.890  -0.863  -0.857  -0.854  -0.845  -0.837
 -0.827  -0.822  -0.817  -0.815  -0.805  -0.796  -0.792  -0.783
 -0.771  -0.754  -0.736  -0.718  -0.708  -0.699  -0.689  -0.682
 -0.680  -0.678  -0.675  -0.672  -0.663  -0.660  -0.659  -0.656
 -0.651  -0.647  -0.644  -0.628  -0.624  -0.623  -0.618  -0.614
 -0.602  -0.592  -0.587  -0.585  -0.581  -0.578  -0.574  -0.563
 -0.562  -0.556  -0.554  -0.550  -0.544  -0.542  -0.541  -0.536
 -0.530  -0.526  -0.520  -0.512  -0.508  -0.498  -0.494  -0.487
 -0.485  -0.479  -0.477  -0.469  -0.456  -0.452  -0.452  -0.448
 -0.439  -0.435  -0.412  -0.399
 -- Virtual --
 -0.380  -0.350  -0.344  -0.325  -0.308  -0.275  -0.266  -0.258
 -0.246  -0.234  -0.223  -0.216  -0.206  -0.203  -0.182  -0.173
 -0.165  -0.161  -0.152  -0.141  -0.139  -0.134  -0.124  -0.121
 -0.116  -0.113  -0.109  -0.104  -0.103  -0.091  -0.090  -0.089
 -0.086  -0.084  -0.078  -0.075  -0.073  -0.065  -0.064  -0.064
 -0.059  -0.057  -0.053  -0.047  -0.045  -0.038  -0.037  -0.034
 -0.031  -0.025  -0.023  -0.017  -0.010  -0.005  -0.004  -0.002
  0.004   0.006   0.015   0.018   0.020   0.026   0.030   0.037
  0.043   0.048   0.049   0.061   0.064   0.067   0.076   0.080
  0.089   0.101   0.103   0.109   0.111   0.116   0.123   0.129
  0.133   0.140   0.150   0.159   0.167   0.169   0.178   0.192
  0.199   0.208   0.224   0.233   0.237   0.244   0.247   0.252
  0.254   0.257   0.261   0.268   0.270   0.275   0.278   0.281
  0.286   0.290   0.294   0.301   0.304   0.311   0.313   0.317
  0.324   0.325   0.336   0.339   0.339   0.345   0.351   0.355
  0.358   0.366   0.372   0.376   0.384   0.395   0.407   0.412
  0.415   0.417   0.423   0.431   0.434   0.439   0.443   0.445
  0.453   0.455   0.461   0.463   0.466   0.470   0.473   0.474
  0.476   0.479   0.486   0.490   0.493   0.500   0.502   0.506
  0.509   0.515   0.517   0.518   0.524   0.526   0.528   0.529
  0.534   0.537   0.541   0.544   0.546   0.549   0.551   0.553
  0.558   0.564   0.568   0.568   0.575   0.575   0.583   0.585
  0.587   0.592   0.593   0.599   0.606   0.607   0.612   0.616
  0.620   0.623   0.628   0.631   0.635   0.645   0.653   0.656
  0.661   0.667   0.675   0.681   0.688   0.695   0.701   0.710
  0.717   0.729   0.734   0.738   0.752   0.764   0.768   0.774
  0.781   0.796   0.803   0.809   0.818   0.829   0.832   0.847
  0.867   0.870   0.880   0.899   0.915   0.920   0.933   0.936
  0.949   0.957   0.967   0.980   0.995   0.996   1.009   1.012
  1.025   1.039   1.051   1.053   1.071   1.077   1.083   1.108
  1.118   1.136   1.145   1.152   1.175   1.199   1.203   1.227
  1.248   1.250   1.292   1.324   1.348   1.356   1.408   1.441
  1.490   1.720
 --------------------------------------------------------------
 
          Ground-State Mulliken Net Atomic Charges

     Atom                 Charge (a.u.)    Spin (a.u.)
  --------------------------------------------------------
      1 Fe                    1.348526       3.750482
      2 N                    -0.743053       0.028817
      3 C                     0.389683       0.035514
      4 H                     0.122616      -0.001181
      5 N                    -0.433351       0.005255
      6 H                     0.314639       0.000225
      7 C                     0.109492       0.010847
      8 H                     0.173867      -0.000157
      9 C                     0.100296      -0.003682
     10 H                     0.146662       0.000494
     11 N                    -0.738549       0.017583
     12 C                     0.336804       0.028224
     13 H                     0.160310      -0.000489
     14 N                    -0.425878       0.004241
     15 H                     0.318493       0.000339
     16 C                     0.131882       0.005519
     17 H                     0.180765       0.000060
     18 C                     0.038655       0.002546
     19 H                     0.151592       0.000534
     20 N                    -0.757854       0.048926
     21 H                     0.335548       0.000385
     22 C                    -0.004688      -0.015526
     23 H                     0.175284       0.000316
     24 C                     0.082918       0.034844
     25 H                     0.169070      -0.001573
     26 N                    -0.261861       0.005554
     27 C                     0.189121       0.014865
     28 H                     0.182463      -0.001107
     29 H                     0.133252       0.000138
     30 H                     0.136331       0.000134
     31 H                     0.133422       0.000094
     32 C                    -0.184500      -0.000181
     33 C                    -0.342813      -0.000304
     34 H                     0.134601       0.000020
     35 H                     0.160628       0.000186
     36 C                    -0.154205       0.000021
     37 C                    -0.151459       0.002448
     38 H                     0.183594      -0.000061
     39 H                     0.107579      -0.000007
     40 C                    -0.130199       0.000086
     41 H                     0.116814       0.000000
     42 C                     0.083358       0.000719
     43 H                     0.126182       0.000027
     44 O                    -0.294202       0.000428
     45 H                     0.112978       0.000005
     46 C                    -0.376926       0.000026
     47 C                    -0.205928       0.000011
     48 C                     0.101762      -0.000020
     49 H                     0.124524      -0.000268
     50 O                    -0.440126       0.012950
     51 C                     0.115818       0.007495
     52 H                     0.144595      -0.000006
     53 C                    -0.240422       0.000030
     54 H                     0.137870       0.000001
     55 H                     0.115742       0.000000
     56 H                     0.129844       0.000324
     57 H                     0.144377       0.000007
     58 H                     0.157153      -0.000128
     59 C                    -0.071369      -0.003856
     60 H                     0.157489      -0.000157
     61 H                     0.107093       0.000029
     62 C                    -0.273248       0.000556
     63 H                     0.084494      -0.000136
     64 C                    -0.140639       0.005161
     65 H                     0.158125       0.000070
     66 C                    -0.050625      -0.002341
     67 H                     0.128371       0.000079
     68 H                     0.101426      -0.000288
     69 C                    -0.234972       0.005145
     70 H                     0.160757      -0.000292
  --------------------------------------------------------
  Sum of atomic charges =     2.000000
  Sum of spin   charges =     4.000000

 -----------------------------------------------------------------
                    Cartesian Multipole Moments
 -----------------------------------------------------------------
    Charge (ESU x 10^10)
                 9.6064
    Dipole Moment (Debye)
         X      11.3170      Y      -1.7310      Z      -0.0479
       Tot      11.4488
    Quadrupole Moments (Debye-Ang)
        XX     -84.3080     XY     -20.1962     YY    -102.5332
        XZ     -15.8111     YZ      -9.5487     ZZ    -192.8285
    Octopole Moments (Debye-Ang^2)
       XXX     262.5651    XXY     -38.6774    XYY     134.9370
       YYY     -98.5449    XXZ     -46.4151    XYZ     -14.2044
       YYZ     -69.5381    XZZ      25.5830    YZZ      17.9566
       ZZZ       9.5526
    Hexadecapole Moments (Debye-Ang^3)
      XXXX  -10980.4383   XXXY    -425.7102   XXYY   -2854.3014
      XYYY    -466.7187   YYYY   -5461.0763   XXXZ    -209.7038
      XXYZ     -31.8016   XYYZ    -336.2855   YYYZ    -232.8548
      XXZZ   -2413.4626   XYZZ      28.0297   YYZZ   -1521.1749
      XZZZ     -33.1881   YZZZ     -69.4832   ZZZZ   -1551.6296
 -----------------------------------------------------------------
 Calculating analytic gradient of the SCF energy
 Gradient of SCF Energy
            1           2           3           4           5           6
    1   0.0254422   0.0086822  -0.0106646  -0.0064100   0.0031642  -0.0012354
    2   0.0021159  -0.0086100  -0.0022093  -0.0024811  -0.0016670   0.0010654
    3   0.0031257   0.0025012   0.0017866   0.0045305  -0.0013970   0.0004194
            7           8           9          10          11          12
    1  -0.0030106  -0.0001554   0.0057538   0.0000347   0.0019772  -0.0091258
    2  -0.0002215  -0.0000173  -0.0023048   0.0001698   0.0183245  -0.0043753
    3   0.0031952  -0.0007942   0.0011047  -0.0005841   0.0030941  -0.0020823
           13          14          15          16          17          18
    1  -0.0083973  -0.0035144   0.0007916  -0.0003729   0.0000317   0.0018634
    2  -0.0014008   0.0046801  -0.0012407   0.0012872  -0.0003442   0.0010948
    3  -0.0023661   0.0011544  -0.0006046  -0.0001227  -0.0002024   0.0009203
           19          20          21          22          23          24
    1   0.0001935  -0.0196673   0.0014559   0.0021125  -0.0001458   0.0029681
    2  -0.0002104  -0.0122263  -0.0006423   0.0039019   0.0000526  -0.0021194
    3  -0.0000248  -0.0179268   0.0007612  -0.0051898   0.0000637  -0.0031571
           25          26          27          28          29          30
    1   0.0005153  -0.0018398  -0.0057497   0.0003375  -0.0003457   0.0006432
    2   0.0001595  -0.0051817   0.0090096   0.0002437   0.0003506  -0.0003434
    3  -0.0000599   0.0038991   0.0044871   0.0004206  -0.0002280  -0.0012390
           31          32          33          34          35          36
    1  -0.0003080  -0.0004679   0.0032193  -0.0009802  -0.0008498   0.0004374
    2  -0.0002927   0.0004660   0.0006962   0.0007289  -0.0010901   0.0006633
    3   0.0006759  -0.0015269  -0.0021533  -0.0002653   0.0005183   0.0002041
           37          38          39          40          41          42
    1   0.0014696   0.0082872   0.0007506  -0.0002528   0.0001320  -0.0026818
    2  -0.0027641   0.0046029   0.0000794  -0.0006259  -0.0006208   0.0018818
    3  -0.0010239  -0.0043385   0.0001721   0.0001730   0.0001273   0.0037447
           43          44          45          46          47          48
    1  -0.0007495  -0.0040002   0.0008459   0.0011733  -0.0011059   0.0129505
    2  -0.0006409  -0.0037392  -0.0002979   0.0009771  -0.0007851   0.0045578
    3  -0.0005652   0.0061568   0.0003781   0.0017501  -0.0007532   0.0001493
           49          50          51          52          53          54
    1  -0.0019087  -0.0249282   0.0098571  -0.0011151  -0.0000137   0.0004476
    2   0.0004990  -0.0056548   0.0041414  -0.0003192  -0.0006810   0.0003120
    3   0.0008347   0.0025814  -0.0073732  -0.0005984  -0.0010361   0.0000178
           55          56          57          58          59          60
    1  -0.0000881  -0.0005181  -0.0006963  -0.0003451   0.0002524   0.0004481
    2   0.0015407  -0.0016659  -0.0003447   0.0007620  -0.0020567   0.0005181
    3   0.0010134   0.0004046  -0.0006122   0.0003760  -0.0033073   0.0003924
           61          62          63          64          65          66
    1  -0.0004105  -0.0005586   0.0129276   0.0057132  -0.0001652  -0.0000748
    2   0.0014521  -0.0006952   0.0012072   0.0020831  -0.0017593  -0.0001416
    3   0.0006917   0.0001477   0.0057073   0.0008880   0.0002107  -0.0021217
           67          68          69          70
    1  -0.0003002   0.0004974  -0.0026534   0.0004459
    2  -0.0005047  -0.0005538   0.0024354  -0.0012243
    3   0.0009266   0.0035112  -0.0023922   0.0008298
 Max gradient component =       2.544E-02
 RMS gradient           =       4.556E-03
 Gradient time:  CPU 4681.57 s  wall 747.50 s
 Geometry Optimization Parameters
   NAtoms,    NIC,     NZ,  NCons,   NDum,   NFix, NCnnct, MaxDiis
       70     546       0       0       0       0       0       0


** GEOMETRY OPTIMIZATION IN DELOCALIZED INTERNAL COORDINATES **
   Searching for a Minimum

   Optimization Cycle:   1

                       Coordinates (Angstroms)
     ATOM                X               Y               Z
      1  Fe        2.3214614212    0.1847326988   -0.1631816745
      2  N         1.7188804150    1.9706042259   -0.5931714485
      3  C         0.7126723276    2.6398260873    0.0177178303
      4  H         0.1208168281    2.2965243829    0.8580391026
      5  N         0.5645633283    3.8377066886   -0.5813856160
      6  H        -0.1099896625    4.5496024617   -0.3140741501
      7  C         1.4798876624    3.9568753529   -1.6201337585
      8  H         1.5278130490    4.8314962281   -2.2566769665
      9  C         2.2031960597    2.7905896497   -1.6234094148
     10  H         2.9986507878    2.4856698450   -2.2919050583
     11  N         2.9565707949   -1.6387497972   -0.2746899168
     12  C         2.2172734173   -2.7543079087   -0.0684238339
     13  H         1.1760466061   -2.7891452581    0.2289937056
     14  N         2.9920035118   -3.8347508446   -0.2907430724
     15  H         2.6924379411   -4.8024005648   -0.2055472692
     16  C         4.2692963892   -3.4294765340   -0.6581687980
     17  H         5.0578076727   -4.1330788578   -0.8955513429
     18  C         4.2454971661   -2.0581697900   -0.6457833503
     19  H         5.0398991625   -1.3675355073   -0.9040438209
     20  N         4.0175519176    0.7637966945    0.8585790352
     21  H         4.4091903537   -0.1024727909    1.2534217483
     22  C         4.8711271113    1.5089533818   -0.0481262001
     23  H         5.4449020233    1.0167715117   -0.8267570790
     24  C         4.7970945611    2.8151453345    0.3314085318
     25  H         5.2762707362    3.6819169659   -0.1099282499
     26  N         3.9765979911    2.9563408633    1.4766171959
     27  C         3.5667944121    1.7725124026    1.8137537242
     28  H         2.9727088035    1.5084627772    2.6843589656
     29  H        -4.5228780067    3.4088854246    0.6480418565
     30  H        -2.1070437292    3.1722116998    1.5988123283
     31  H        -4.6697145023    2.5934555916    2.1985259242
     32  C        -4.6153775927    2.4031976893    1.1100011270
     33  C        -2.1772857869    2.0693013460    1.6397476178
     34  H        -6.7458800663    2.4020647222    0.6874262466
     35  H        -2.3203810703    1.8152387954    2.7071450120
     36  C        -5.8842204931    1.7183638982    0.6133706359
     37  C        -3.3587130040    1.6151942487    0.8236861361
     38  H        -1.2204586087    1.6638381061    1.2938954496
     39  H        -5.4044187273    2.1577163687   -1.4362212772
     40  C        -5.6687762531    1.2712147182   -0.8272439417
     41  H        -6.1179704971    0.8487701561    1.2556798576
     42  C        -3.3315220893    0.6032103304   -0.0881370475
     43  H        -6.5910782549    0.8510677116   -1.2654312003
     44  O        -0.8460626902    0.4690323010   -0.5783486392
     45  H        -3.6558283338    1.1391547592   -2.7555233027
     46  C        -4.5381809264    0.2281247827   -0.9640520625
     47  C        -4.1362534846    0.1921167887   -2.4555703598
     48  C        -2.1292517554   -0.2616907375   -0.2847092210
     49  H        -1.5991794062   -0.4947497891    1.8496392574
     50  O        -0.1059277255   -0.5870447930    0.3277349453
     51  C        -1.4321309382   -0.9954920030    0.8809959937
     52  H        -5.0385503316    0.0510094212   -3.0760487447
     53  C        -5.0577044566   -1.1663683482   -0.5521064360
     54  H        -5.4451610866   -1.1607352794    0.4805894500
     55  H        -3.4460703134   -0.6323535715   -2.6938206524
     56  H        -2.2849713557   -0.9814000045   -1.1006005063
     57  H        -5.8710821549   -1.4920553211   -1.2241354921
     58  H        -3.5601282012   -2.3558751177    1.9162024760
     59  C        -1.6037489851   -2.4724689338    1.0069142158
     60  H        -2.2423463862   -2.6409391184    3.0624242628
     61  H        -4.2592919004   -1.9279433655   -0.6048009640
     62  C        -2.6021167075   -2.8931080045    2.0469245656
     63  H        -0.1979679411   -2.8372507669   -0.5054970128
     64  C        -0.8962422805   -3.3053387354    0.1965161521
     65  H        -2.8190713356   -3.9696932211    2.0251350096
     66  C        -0.9478271362   -4.7533047104    0.1793080938
     67  H        -1.6138813608   -5.2511175678    0.8916346033
     68  H         0.4652332386   -5.0604449169   -1.3928167917
     69  C        -0.2152910970   -5.5138421511   -0.6650217982
     70  H        -0.2728600284   -6.6045998825   -0.6561459369
   Point Group: c1    Number of degrees of freedom:   204


   Energy is  -2714.254918085


 Attempting to Generate Delocalized Internal Coordinates

204 Hessian modes will be used to form the next step
  Hessian Eigenvalues:
     0.002000    0.002000    0.002000    0.002830    0.003207    0.003346
     0.003983    0.004944    0.005213    0.006345    0.008400    0.008701
     0.008945    0.010482    0.010532    0.010834    0.011591    0.011810
     0.012396    0.013150    0.013294    0.014227    0.014752    0.015927
     0.016768    0.016942    0.017040    0.018973    0.019408    0.019456
     0.019797    0.020049    0.020471    0.020523    0.020922    0.020989
     0.021634    0.022388    0.023075    0.023133    0.023962    0.025985
     0.028756    0.028756    0.030819    0.033489    0.037537    0.038785
     0.041881    0.043452    0.048196    0.049674    0.051694    0.052422
     0.053064    0.053351    0.053824    0.054359    0.054479    0.055165
     0.055338    0.056474    0.058192    0.059835    0.062169    0.063455
     0.069306    0.070072    0.071774    0.073574    0.075095    0.078483
     0.078992    0.080232    0.084000    0.084404    0.096736    0.096845
     0.098515    0.104522    0.114026    0.117540    0.121080    0.126928
     0.129186    0.132765    0.135433    0.135966    0.145020    0.152718
     0.159832    0.159841    0.159907    0.159976    0.159980    0.159993
     0.159994    0.159995    0.159998    0.159999    0.160000    0.160000
     0.160000    0.160000    0.160000    0.160000    0.160000    0.160000
     0.160000    0.160000    0.160000    0.160000    0.160000    0.160829
     0.173278    0.178895    0.184596    0.189418    0.192141    0.202555
     0.205870    0.217688    0.218983    0.220000    0.221136    0.228167
     0.229044    0.231108    0.231566    0.233216    0.236171    0.245059
     0.245777    0.249500    0.249963    0.271191    0.272875    0.280681
     0.280939    0.281596    0.287089    0.294613    0.301117    0.306597
     0.316126    0.321929    0.323007    0.325395    0.327704    0.328629
     0.329725    0.329772    0.329883    0.330147    0.330195    0.330377
     0.330697    0.331739    0.332209    0.332261    0.332324    0.333005
     0.333373    0.333522    0.334130    0.335385    0.337875    0.338547
     0.339683    0.341414    0.341917    0.342499    0.342751    0.345468
     0.352132    0.353483    0.353696    0.354811    0.355172    0.355322
     0.356195    0.356496    0.356587    0.365025    0.383780    0.408508
     0.411380    0.415281    0.428686    0.438384    0.440222    0.448955
     0.449011    0.472853    0.473302    0.496475    0.499536    0.521262
     0.523497    0.527724    0.537567    0.538314    0.545969    0.647143

 Minimum Search - Taking Simple RFO Step
 Searching for Lamda that Minimizes Along All modes
 Value Taken    Lamda =  -0.02552425
 Calculated Step too Large.  Step scaled by  0.516435
 Step Taken.  Stepsize is  0.300000

                             Maximum     Tolerance    Cnvgd?
         Gradient           0.013384      0.000300      NO
         Displacement       0.110922      0.001200      NO
         Energy change     *********      0.000001      NO


 New Cartesian Coordinates Obtained by Inverse Iteration

 Displacement from previous Coordinates is:  1.966137
 ----------------------------------------------------------------
             Standard Nuclear Orientation (Angstroms)
    I     Atom           X                Y                Z
 ----------------------------------------------------------------
    1      Fe      2.2889493612     0.1806882948    -0.1938697890
    2      N       1.6940844807     1.9854434685    -0.6406389728
    3      C       0.7149219673     2.6802519586    -0.0227183345
    4      H       0.1345808109     2.3474567488     0.8288929371
    5      N       0.5713810317     3.8741548164    -0.6318962490
    6      H      -0.0866531062     4.5983474216    -0.3601656505
    7      C       1.4723686360     3.9690078710    -1.6864474686
    8      H       1.5266461365     4.8371092343    -2.3308241583
    9      C       2.1721990478     2.7893604023    -1.6874642441
   10      H       2.9526349811     2.4639050811    -2.3635609273
   11      N       2.9290766648    -1.6658186831    -0.3417354985
   12      C       2.2008145471    -2.7879411870    -0.1581292116
   13      H       1.1598185344    -2.8230417519     0.1389409097
   14      N       2.9803329390    -3.8645444920    -0.3916265116
   15      H       2.6822477806    -4.8330299812    -0.3176130756
   16      C       4.2559850873    -3.4469528837    -0.7477604235
   17      H       5.0510481481    -4.1409421658    -0.9905724943
   18      C       4.2208692308    -2.0756412111    -0.7150342049
   19      H       5.0122435529    -1.3760600411    -0.9580040019
   20      N       3.9634447623     0.7454280831     0.9589919621
   21      H       4.3342980552    -0.1306790601     1.3499926077
   22      C       4.8604391524     1.5169506737     0.1246331864
   23      H       5.4791188206     1.0482068694    -0.6339768251
   24      C       4.7517686824     2.8149004832     0.5270387527
   25      H       5.2431459929     3.6959783139     0.1303548977
   26      N       3.8721079810     2.9220926616     1.6276263618
   27      C       3.4625459706     1.7230268910     1.9134701252
   28      H       2.8228644909     1.4309755125     2.7416933102
   29      H      -4.5557108437     3.3775629016     0.6499004535
   30      H      -2.1325233201     3.1999088813     1.5999711657
   31      H      -4.6679732844     2.5548561048     2.1980462563
   32      C      -4.6178587579     2.3686149031     1.1091231650
   33      C      -2.1809588332     2.0955105148     1.6377935325
   34      H      -6.7499149233     2.3067697900     0.7074917718
   35      H      -2.3210770724     1.8391267741     2.7043344204
   36      C      -5.8707467529     1.6484201406     0.6237129754
   37      C      -3.3430948531     1.6172683315     0.8110679487
   38      H      -1.2206297085     1.7016076414     1.2930604997
   39      H      -5.4272743564     2.0999709403    -1.4318016651
   40      C      -5.6574648082     1.2072071997    -0.8183279862
   41      H      -6.0734690466     0.7731944345     1.2681978349
   42      C      -3.2924179764     0.6074420356    -0.1065114121
   43      H      -6.5720503100     0.7608564665    -1.2445178699
   44      O      -0.8094741929     0.4879777761    -0.7099642976
   45      H      -3.6650844443     1.1276659954    -2.7708968237
   46      C      -4.4993498882     0.1957388154    -0.9658796175
   47      C      -4.1124952007     0.1674685057    -2.4619234858
   48      C      -2.0808177070    -0.2385089485    -0.3295651376
   49      H      -1.4260681249    -0.3991151653     1.7832848494
   50      O      -0.0101324196    -0.5446820559     0.1830732810
   51      C      -1.3214362569    -0.9323187054     0.8243375998
   52      H      -5.0174891148     0.0001537547    -3.0700921425
   53      C      -4.9723002790    -1.2128434404    -0.5435067463
   54      H      -5.3474387691    -1.2177034122     0.4938525748
   55      H      -3.4035638248    -0.6394883921    -2.7099179151
   56      H      -2.2667471029    -0.9763920706    -1.1216752339
   57      H      -5.7844971129    -1.5616527224    -1.2040158499
   58      H      -3.4160029023    -2.1665848578     2.0453797325
   59      C      -1.5345022257    -2.3982290577     1.0128968292
   60      H      -2.0376705183    -2.4746186808     3.1118020372
   61      H      -4.1544192545    -1.9541132779    -0.6073677299
   62      C      -2.4747846787    -2.7403235010     2.1312057323
   63      H      -0.2656845739    -2.8690052392    -0.5774137495
   64      C      -0.9301857155    -3.2890097971     0.1815719110
   65      H      -2.7384978044    -3.8049109459     2.1591268099
   66      C      -1.0266661603    -4.7343346369     0.2162178717
   67      H      -1.6442408711    -5.1889801631     0.9966866915
   68      H       0.2155271147    -5.1306951318    -1.4798076677
   69      C      -0.3954009024    -5.5416228719    -0.6674637871
   70      H      -0.4912869369    -6.6280299423    -0.6257751875
 ----------------------------------------------------------------
 Molecular Point Group                 C1    NOp =  1
 Largest Abelian Subgroup              C1    NOp =  1
 Nuclear Repulsion Energy =  4344.1579431294 hartrees
 There are      136 alpha and      132 beta electrons
 Applying Cartesian multipole field
    Component          Value
    ---------          -----
     (2,0,0)        1.00000E-12
     (0,2,0)        2.00000E-12
     (0,0,2)       -3.00000E-11
 Nucleus-field energy     =    -0.0000000127 hartrees
 Requested basis set is VDZ
 There are 246 shells and 390 basis functions
 A cutoff of  1.0D-12 yielded  20259 shell pairs
 There are     52367 function pairs (     52955 Cartesian)
 Smallest overlap matrix eigenvalue = 7.69E-04
 Guess MOs from SCF MO coefficient file

 -----------------------------------------------------------------------
  General SCF calculation program by
  Eric Jon Sundstrom, Paul Horn, Yuezhi Mao, Dmitri Zuev, Alec White,
  David Stuck, Shaama M.S., Shane Yost, Joonho Lee, David Small,
  Daniel Levine, Susi Lehtola, Hugh Burton, Evgeny Epifanovsky
 -----------------------------------------------------------------------
 Exchange:  B97M-V      Correlation:  B97M-V
 Using SG-2 standard quadrature grid
 Nonlocal Correlation:  rVV10 with C = 0.0100 and b = 6.00 and scale = 1.00000
 Grid used for NLC:  SG-1 standard quadrature
 using 12 threads for integral computing
 -------------------------------------------------------
 OpenMP Integral computing Module                
 Release: version 1.0, May 2013, Q-Chem Inc. Pittsburgh 
 -------------------------------------------------------
 -------------------------------------------------------
 OpenMP BLAS3 based DFT computing Module                
 Release: version 1.0, May 2013, Q-Chem Inc. Pittsburgh 
 -------------------------------------------------------
 -------------------------------------------------------
 OpenMP BLAS3 based DFT computing Module                
 Release: version 1.0, May 2013, Q-Chem Inc. Pittsburgh 
 -------------------------------------------------------
 -------------------------------------------------------
 OpenMP BLAS3 based DFT computing Module                
 Release: version 1.0, May 2013, Q-Chem Inc. Pittsburgh 
 -------------------------------------------------------
 Nonlocal correlation = 0.984659225771
 A unrestricted SCF calculation will be
 performed using DIIS, GDM
 SCF converges when RMS gradient is below 1.0e-08
 ---------------------------------------
  Cycle       Energy         DIIS error
 ---------------------------------------
 Nonlocal correlation = 9.846492770019e-01
    1   -2714.2401768912      3.99e-04  
    2   -2714.2649260782      1.02e-04  Done DIIS. Switching to GDM
 ---------------------------------------
  Cycle       Energy        RMS Gradient
 ---------------------------------------
 Nonlocal correlation = 9.847099261435e-01
    1   -2714.2649260782      1.75e-02   Normal BFGS step
 Nonlocal correlation = 9.846640626422e-01
    2   -2714.2589580182      5.69e-02  Line search: overstep
 Nonlocal correlation = 9.846645309236e-01
    3   -2714.2657682815      1.94e-03   Normal BFGS step
 Nonlocal correlation = 9.846642454655e-01
    4   -2714.2657274548      5.14e-03  Line search: overstep
 Nonlocal correlation = 9.846572249736e-01
    5   -2714.2658040912      9.54e-04   Normal BFGS step
 Nonlocal correlation = 9.846608038209e-01
    6   -2714.2658032806      1.47e-03  Line search: overstep
 Nonlocal correlation = 9.846618728335e-01
    7   -2714.2658136183      6.74e-04   Normal BFGS step
 Nonlocal correlation = 9.846628767594e-01
    8   -2714.2658154956      5.89e-04   Normal BFGS step
 Nonlocal correlation = 9.846638032246e-01
    9   -2714.2658182514      5.25e-04   Normal BFGS step
 Nonlocal correlation = 9.846601708451e-01
   10   -2714.2658202088      5.47e-04   Normal BFGS step
 Nonlocal correlation = 9.846595494012e-01
   11   -2714.2658223473      3.71e-04   Normal BFGS step
 Nonlocal correlation = 9.846601783411e-01
   12   -2714.2658233948      2.73e-04   Normal BFGS step
 Nonlocal correlation = 9.846592897313e-01
   13   -2714.2658235236      3.60e-04   Normal BFGS step
 Nonlocal correlation = 9.846595791222e-01
   14   -2714.2658240487      8.79e-05   Normal BFGS step
 Nonlocal correlation = 9.846592710991e-01
   15   -2714.2658240841      1.11e-04   Normal BFGS step
 Nonlocal correlation = 9.846589636438e-01
   16   -2714.2658241709      9.46e-05   Normal BFGS step
 Nonlocal correlation = 9.846590492391e-01
   17   -2714.2658242032      8.15e-05   Normal BFGS step
 Nonlocal correlation = 9.846589338089e-01
   18   -2714.2658242607      7.02e-05   Normal BFGS step
 Nonlocal correlation = 9.846585552927e-01
   19   -2714.2658243336      4.69e-05   Normal BFGS step
 Nonlocal correlation = 9.846588076834e-01
   20   -2714.2658243592      4.78e-05   Normal BFGS step
 Nonlocal correlation = 9.846587178363e-01
   21   -2714.2658243709      1.53e-05   Normal BFGS step
 Nonlocal correlation = 9.846587157515e-01
   22   -2714.2658243736      1.54e-05   Normal BFGS step
 Nonlocal correlation = 9.846587156484e-01
   23   -2714.2658243763      8.02e-06   Normal BFGS step
 Nonlocal correlation = 9.846586867852e-01
   24   -2714.2658243766      8.50e-06   Normal BFGS step
 Nonlocal correlation = 9.846587081346e-01
   25   -2714.2658243771      2.20e-06   Normal BFGS step
 Nonlocal correlation = 9.846587018200e-01
   26   -2714.2658243771      2.09e-06   Normal BFGS step
 Nonlocal correlation = 9.846586908807e-01
   27   -2714.2658243772      7.53e-07   Normal BFGS step
 Nonlocal correlation = 9.846586935542e-01
   28   -2714.2658243772      7.65e-07   Normal BFGS step
 Nonlocal correlation = 9.846586980370e-01
   29   -2714.2658243772      4.61e-07   Normal BFGS step
 Nonlocal correlation = 9.846586972527e-01
   30   -2714.2658243772      9.69e-07   Normal BFGS step
 Nonlocal correlation = 9.846586934115e-01
   31   -2714.2658243772      4.15e-07   Normal BFGS step
 Nonlocal correlation = 9.846586946053e-01
   32   -2714.2658243772      1.94e-07   Normal BFGS step
 Nonlocal correlation = 9.846586968576e-01
   33   -2714.2658243772      1.04e-07   Normal BFGS step
 Nonlocal correlation = 9.846586954492e-01
   34   -2714.2658243772      1.11e-07   Normal BFGS step
 Nonlocal correlation = 9.846586951579e-01
   35   -2714.2658243772      3.38e-08   Normal BFGS step
  /scratch/qcdevops/jenkins/workspace/build_qchem_linux_distrib/tags/qc511/qchem/libgscf/libgscf/opt/gdm.C::WARNING energy changes are now smaller than effective accuracy.
  /scratch/qcdevops/jenkins/workspace/build_qchem_linux_distrib/tags/qc511/qchem/libgscf/libgscf/opt/gdm.C::        calculation will continue, but THRESH should be increased
  /scratch/qcdevops/jenkins/workspace/build_qchem_linux_distrib/tags/qc511/qchem/libgscf/libgscf/opt/gdm.C::        or SCF_CONVERGENCE decreased. 
  /scratch/qcdevops/jenkins/workspace/build_qchem_linux_distrib/tags/qc511/qchem/libgscf/libgscf/opt/gdm.C::        effective_thresh = 6.86e-09
 Nonlocal correlation = 9.846586953457e-01
   36   -2714.2658243772      3.79e-08   Normal BFGS step
 Nonlocal correlation = 9.846586953679e-01
   37   -2714.2658243772      1.73e-08   Normal BFGS step
 Nonlocal correlation = 9.846586953840e-01
   38   -2714.2658243772      3.17e-08   Normal BFGS step
 Nonlocal correlation = 9.846586953019e-01
   39   -2714.2658243772      5.04e-09  Convergence criterion met
 ---------------------------------------
 SCF time:   CPU 110653.23s  wall 9272.00s 
<S^2> =          6.009501330
 SCF   energy in the final basis set =    -2714.2658243772
 Total energy in the final basis set =    -2714.2658243772
 
 --------------------------------------------------------------
 
                    Orbital Energies (a.u.)
 --------------------------------------------------------------
 
 Alpha MOs
 -- Occupied --
******* -30.394 -26.137 -26.127 -26.113 -19.447 -19.431 -14.653
-14.653 -14.641 -14.623 -14.609 -14.572 -10.511 -10.505 -10.493
-10.475 -10.471 -10.467 -10.465 -10.457 -10.456 -10.452 -10.447
-10.415 -10.398 -10.398 -10.389 -10.383 -10.379 -10.378 -10.376
-10.372 -10.354 -10.335 -10.335 -10.333 -10.332  -3.833  -2.592
 -2.571  -2.539  -1.300  -1.268  -1.255  -1.239  -1.125  -1.111
 -1.107  -1.104  -1.020  -1.003  -0.987  -0.974  -0.966  -0.956
 -0.946  -0.923  -0.892  -0.864  -0.857  -0.856  -0.844  -0.834
 -0.827  -0.821  -0.818  -0.817  -0.804  -0.796  -0.793  -0.783
 -0.770  -0.757  -0.737  -0.720  -0.709  -0.701  -0.691  -0.687
 -0.683  -0.681  -0.675  -0.672  -0.662  -0.660  -0.659  -0.655
 -0.651  -0.647  -0.645  -0.638  -0.629  -0.624  -0.621  -0.616
 -0.608  -0.597  -0.595  -0.590  -0.589  -0.582  -0.580  -0.575
 -0.569  -0.567  -0.565  -0.563  -0.558  -0.556  -0.549  -0.543
 -0.541  -0.537  -0.533  -0.532  -0.522  -0.516  -0.514  -0.512
 -0.508  -0.500  -0.495  -0.488  -0.486  -0.479  -0.475  -0.472
 -0.465  -0.455  -0.454  -0.453  -0.448  -0.438  -0.413  -0.400
 -- Virtual --
 -0.315  -0.283  -0.268  -0.262  -0.253  -0.235  -0.233  -0.218
 -0.213  -0.205  -0.184  -0.174  -0.169  -0.161  -0.154  -0.149
 -0.142  -0.136  -0.125  -0.122  -0.117  -0.113  -0.108  -0.107
 -0.104  -0.092  -0.091  -0.089  -0.087  -0.084  -0.079  -0.076
 -0.074  -0.069  -0.066  -0.065  -0.061  -0.058  -0.056  -0.049
 -0.048  -0.043  -0.039  -0.036  -0.034  -0.026  -0.026  -0.019
 -0.013  -0.007  -0.005  -0.003   0.002   0.006   0.013   0.016
  0.017   0.023   0.028   0.032   0.041   0.044   0.046   0.061
  0.065   0.067   0.075   0.080   0.088   0.099   0.102   0.107
  0.108   0.116   0.120   0.126   0.129   0.137   0.151   0.158
  0.164   0.168   0.176   0.187   0.198   0.205   0.224   0.232
  0.234   0.241   0.246   0.250   0.254   0.258   0.258   0.265
  0.270   0.273   0.276   0.279   0.283   0.288   0.293   0.299
  0.303   0.307   0.312   0.317   0.320   0.324   0.332   0.337
  0.338   0.342   0.350   0.353   0.357   0.363   0.369   0.374
  0.381   0.393   0.404   0.407   0.411   0.417   0.420   0.428
  0.434   0.438   0.441   0.442   0.449   0.454   0.457   0.462
  0.463   0.469   0.470   0.474   0.475   0.478   0.485   0.489
  0.491   0.498   0.499   0.507   0.509   0.513   0.515   0.518
  0.524   0.525   0.526   0.528   0.532   0.536   0.538   0.541
  0.543   0.547   0.549   0.551   0.555   0.556   0.564   0.567
  0.571   0.574   0.576   0.581   0.584   0.588   0.592   0.596
  0.600   0.602   0.608   0.610   0.616   0.619   0.622   0.626
  0.632   0.641   0.648   0.654   0.658   0.663   0.669   0.673
  0.676   0.689   0.693   0.701   0.712   0.715   0.719   0.734
  0.736   0.755   0.758   0.769   0.780   0.795   0.800   0.804
  0.807   0.815   0.820   0.843   0.851   0.863   0.871   0.880
  0.897   0.905   0.912   0.930   0.937   0.951   0.963   0.975
  0.979   0.985   0.995   1.003   1.011   1.033   1.041   1.048
  1.052   1.063   1.078   1.090   1.117   1.126   1.136   1.144
  1.172   1.196   1.202   1.206   1.222   1.235   1.283   1.302
  1.319   1.337   1.404   1.431   1.466   1.718
 
 Beta MOs
 -- Occupied --
******* -30.314 -26.064 -26.057 -26.054 -19.446 -19.431 -14.653
-14.652 -14.641 -14.623 -14.608 -14.572 -10.511 -10.504 -10.493
-10.475 -10.471 -10.467 -10.465 -10.457 -10.456 -10.452 -10.446
-10.415 -10.398 -10.398 -10.389 -10.383 -10.379 -10.378 -10.376
-10.371 -10.354 -10.335 -10.335 -10.333 -10.332  -3.645  -2.377
 -2.376  -2.366  -1.299  -1.267  -1.254  -1.238  -1.123  -1.110
 -1.105  -1.103  -1.019  -1.003  -0.986  -0.973  -0.965  -0.956
 -0.946  -0.923  -0.891  -0.863  -0.856  -0.854  -0.842  -0.833
 -0.825  -0.820  -0.818  -0.817  -0.802  -0.795  -0.792  -0.782
 -0.769  -0.756  -0.737  -0.720  -0.708  -0.695  -0.689  -0.682
 -0.681  -0.677  -0.672  -0.670  -0.661  -0.657  -0.656  -0.654
 -0.648  -0.644  -0.642  -0.629  -0.624  -0.621  -0.616  -0.613
 -0.605  -0.594  -0.589  -0.588  -0.581  -0.578  -0.575  -0.565
 -0.564  -0.558  -0.556  -0.546  -0.544  -0.542  -0.540  -0.538
 -0.533  -0.524  -0.521  -0.514  -0.509  -0.500  -0.495  -0.488
 -0.486  -0.475  -0.475  -0.467  -0.456  -0.454  -0.453  -0.449
 -0.439  -0.435  -0.413  -0.401
 -- Virtual --
 -0.376  -0.348  -0.340  -0.321  -0.312  -0.272  -0.263  -0.259
 -0.244  -0.230  -0.225  -0.213  -0.207  -0.201  -0.182  -0.173
 -0.165  -0.160  -0.153  -0.143  -0.141  -0.134  -0.123  -0.121
 -0.115  -0.112  -0.107  -0.104  -0.103  -0.092  -0.091  -0.089
 -0.086  -0.083  -0.076  -0.074  -0.071  -0.065  -0.065  -0.064
 -0.059  -0.056  -0.055  -0.048  -0.046  -0.039  -0.036  -0.033
 -0.032  -0.026  -0.022  -0.017  -0.012  -0.005  -0.004  -0.002
  0.003   0.006   0.013   0.016   0.018   0.025   0.029   0.034
  0.041   0.045   0.047   0.062   0.066   0.068   0.075   0.081
  0.089   0.100   0.103   0.108   0.109   0.118   0.121   0.127
  0.130   0.139   0.152   0.159   0.168   0.168   0.177   0.191
  0.199   0.206   0.224   0.234   0.236   0.243   0.247   0.251
  0.255   0.259   0.260   0.268   0.271   0.275   0.278   0.281
  0.286   0.289   0.295   0.300   0.305   0.309   0.313   0.317
  0.324   0.325   0.334   0.338   0.339   0.344   0.351   0.354
  0.359   0.366   0.372   0.376   0.384   0.395   0.407   0.410
  0.412   0.417   0.421   0.429   0.435   0.440   0.441   0.445
  0.453   0.455   0.459   0.464   0.467   0.470   0.471   0.475
  0.476   0.479   0.486   0.491   0.493   0.499   0.503   0.509
  0.509   0.514   0.515   0.519   0.524   0.526   0.526   0.528
  0.534   0.538   0.539   0.542   0.544   0.548   0.550   0.554
  0.557   0.560   0.565   0.567   0.574   0.576   0.581   0.582
  0.586   0.591   0.593   0.598   0.603   0.604   0.609   0.613
  0.619   0.622   0.626   0.631   0.635   0.642   0.652   0.656
  0.659   0.665   0.674   0.677   0.680   0.695   0.697   0.704
  0.717   0.725   0.731   0.740   0.750   0.759   0.767   0.778
  0.783   0.799   0.803   0.806   0.817   0.827   0.829   0.847
  0.863   0.871   0.873   0.903   0.910   0.916   0.923   0.935
  0.941   0.954   0.967   0.984   0.987   0.995   1.004   1.013
  1.018   1.037   1.045   1.054   1.063   1.078   1.082   1.104
  1.123   1.131   1.146   1.155   1.176   1.198   1.207   1.228
  1.241   1.242   1.291   1.323   1.328   1.358   1.421   1.440
  1.495   1.720
 --------------------------------------------------------------
 
          Ground-State Mulliken Net Atomic Charges

     Atom                 Charge (a.u.)    Spin (a.u.)
  --------------------------------------------------------
      1 Fe                    1.356773       3.759249
      2 N                    -0.729760       0.029497
      3 C                     0.380296       0.031135
      4 H                     0.125938      -0.001013
      5 N                    -0.434302       0.005418
      6 H                     0.313032       0.000202
      7 C                     0.110595       0.009197
      8 H                     0.173298      -0.000045
      9 C                     0.091504      -0.002361
     10 H                     0.145466       0.000537
     11 N                    -0.726141       0.018611
     12 C                     0.332954       0.024250
     13 H                     0.152987      -0.000425
     14 N                    -0.425419       0.004084
     15 H                     0.317187       0.000291
     16 C                     0.130876       0.004658
     17 H                     0.179663       0.000145
     18 C                     0.037299       0.003093
     19 H                     0.149313       0.000598
     20 N                    -0.738683       0.040722
     21 H                     0.331738       0.000142
     22 C                    -0.000918      -0.012115
     23 H                     0.172115       0.000295
     24 C                     0.076261       0.030472
     25 H                     0.167740      -0.001424
     26 N                    -0.261012       0.005182
     27 C                     0.180322       0.013834
     28 H                     0.178015      -0.000981
     29 H                     0.135750       0.000136
     30 H                     0.140306       0.000130
     31 H                     0.133665       0.000089
     32 C                    -0.186339      -0.000147
     33 C                    -0.337855      -0.000251
     34 H                     0.134854       0.000023
     35 H                     0.162169       0.000177
     36 C                    -0.153873       0.000019
     37 C                    -0.146752       0.002331
     38 H                     0.171868      -0.000075
     39 H                     0.108847      -0.000010
     40 C                    -0.129285       0.000115
     41 H                     0.116243       0.000001
     42 C                     0.075675       0.001085
     43 H                     0.126336       0.000040
     44 O                    -0.278956       0.000381
     45 H                     0.114884       0.000004
     46 C                    -0.381475       0.000064
     47 C                    -0.206233       0.000012
     48 C                     0.099535      -0.000076
     49 H                     0.123842      -0.000207
     50 O                    -0.460316       0.018458
     51 C                     0.123906       0.009264
     52 H                     0.144717      -0.000004
     53 C                    -0.240569       0.000015
     54 H                     0.137794       0.000002
     55 H                     0.115798       0.000001
     56 H                     0.134828       0.000295
     57 H                     0.144605       0.000015
     58 H                     0.156225      -0.000160
     59 C                    -0.080977      -0.004808
     60 H                     0.155345      -0.000191
     61 H                     0.108494       0.000042
     62 C                    -0.271708       0.000687
     63 H                     0.084168      -0.000279
     64 C                    -0.134100       0.006640
     65 H                     0.158561       0.000100
     66 C                    -0.054945      -0.003031
     67 H                     0.127880       0.000099
     68 H                     0.108347      -0.000354
     69 C                    -0.229169       0.006486
     70 H                     0.160775      -0.000368
  --------------------------------------------------------
  Sum of atomic charges =     2.000000
  Sum of spin   charges =     4.000000

 -----------------------------------------------------------------
                    Cartesian Multipole Moments
 -----------------------------------------------------------------
    Charge (ESU x 10^10)
                 9.6064
    Dipole Moment (Debye)
         X      10.8266      Y      -1.8620      Z      -0.0975
       Tot      10.9860
    Quadrupole Moments (Debye-Ang)
        XX     -86.4223     XY     -20.4216     YY    -101.2944
        XZ     -15.6073     YZ      -8.4253     ZZ    -192.1118
    Octopole Moments (Debye-Ang^2)
       XXX     257.3164    XXY     -34.8501    XYY     134.8410
       YYY    -100.5569    XXZ     -42.2562    XYZ     -11.9627
       YYZ     -75.8908    XZZ      24.8553    YZZ      14.1613
       ZZZ      12.4887
    Hexadecapole Moments (Debye-Ang^3)
      XXXX  -10768.5612   XXXY    -429.8129   XXYY   -2812.7616
      XYYY    -459.0119   YYYY   -5352.1604   XXXZ    -214.1668
      XXYZ     -14.0376   XYYZ    -345.1434   YYYZ    -241.7418
      XXZZ   -2392.7429   XYZZ      14.3401   YYZZ   -1518.9901
      XZZZ     -64.0637   YZZZ    -116.2831   ZZZZ   -1639.5502
 -----------------------------------------------------------------
 Calculating analytic gradient of the SCF energy
 Gradient of SCF Energy
            1           2           3           4           5           6
    1   0.0229332   0.0030716  -0.0077328  -0.0052329   0.0022762  -0.0007897
    2   0.0031220  -0.0072336  -0.0007663  -0.0032100  -0.0012176   0.0005925
    3   0.0010001   0.0029645   0.0001808   0.0039223  -0.0014682   0.0001832
            7           8           9          10          11          12
    1  -0.0020479  -0.0001196   0.0027654  -0.0005308  -0.0013762  -0.0045880
    2   0.0006177  -0.0000617  -0.0005399   0.0002114   0.0121618  -0.0033059
    3   0.0020256  -0.0005645   0.0011539  -0.0003027   0.0040906  -0.0032104
           13          14          15          16          17          18
    1  -0.0077099  -0.0015062   0.0004440  -0.0002173  -0.0000075   0.0001005
    2   0.0002731   0.0030550  -0.0010051   0.0001168  -0.0003095  -0.0005491
    3  -0.0016115   0.0007046  -0.0003264  -0.0001148  -0.0000711   0.0008613
           19          20          21          22          23          24
    1   0.0000034  -0.0150435   0.0016993   0.0022820   0.0000714   0.0019416
    2  -0.0003047  -0.0101990   0.0004296   0.0032046   0.0000969  -0.0015680
    3  -0.0000228  -0.0158743   0.0014578  -0.0017959   0.0000106  -0.0008436
           25          26          27          28          29          30
    1   0.0002524  -0.0009052  -0.0017392   0.0002997  -0.0001638  -0.0000582
    2   0.0002250  -0.0033630   0.0079628  -0.0000548   0.0002874   0.0001741
    3   0.0000547   0.0022075   0.0037231   0.0001137   0.0000062  -0.0007402
           31          32          33          34          35          36
    1  -0.0002742   0.0002787   0.0024174  -0.0004908  -0.0003623   0.0003291
    2  -0.0003853   0.0009265   0.0008164   0.0003939  -0.0003658   0.0004361
    3   0.0004370  -0.0011462   0.0003225  -0.0001624   0.0004876   0.0001524
           37          38          39          40          41          42
    1   0.0017523   0.0049707   0.0004957  -0.0003914   0.0001290  -0.0027852
    2   0.0000662   0.0035018   0.0001718  -0.0003567  -0.0004479   0.0001477
    3  -0.0011643  -0.0034795   0.0001144   0.0002067   0.0000022   0.0023470
           43          44          45          46          47          48
    1  -0.0003493  -0.0026721   0.0006002   0.0011163  -0.0008447   0.0072632
    2  -0.0003046  -0.0049484  -0.0001144   0.0001754  -0.0005016   0.0035342
    3  -0.0002750   0.0035185   0.0001879   0.0023591  -0.0004838  -0.0033045
           49          50          51          52          53          54
    1  -0.0019519  -0.0174776   0.0103548  -0.0005263  -0.0003542   0.0003386
    2   0.0001108  -0.0045891   0.0044417  -0.0002048  -0.0005448   0.0001960
    3   0.0013715   0.0025518  -0.0054690  -0.0001359  -0.0010110   0.0000750
           55          56          57          58          59          60
    1   0.0002097  -0.0012587  -0.0002481   0.0001275  -0.0018209   0.0004000
    2   0.0007838  -0.0006389  -0.0002553   0.0005164  -0.0018555   0.0003256
    3   0.0007777  -0.0006065  -0.0002648   0.0003585  -0.0029691  -0.0000352
           61          62          63          64          65          66
    1   0.0000381  -0.0004926   0.0103336   0.0042973  -0.0001976  -0.0001148
    2   0.0008602  -0.0011714   0.0006176   0.0013479  -0.0005853  -0.0004055
    3   0.0003693  -0.0003035   0.0071599  -0.0003239   0.0002107  -0.0010601
           67          68          69          70
    1  -0.0001601   0.0002622  -0.0014284   0.0001308
    2  -0.0002688  -0.0000543   0.0003176  -0.0005250
    3   0.0002716   0.0017006  -0.0008742   0.0003726
 Max gradient component =       2.293E-02
 RMS gradient           =       3.559E-03
 Gradient time:  CPU 4675.19 s  wall 738.05 s
 Geometry Optimization Parameters
   NAtoms,    NIC,     NZ,  NCons,   NDum,   NFix, NCnnct, MaxDiis
       70     546       0       0       0       0       0       0

 Cartesian Hessian Update
 Hessian Updated using BFGS Update


** GEOMETRY OPTIMIZATION IN DELOCALIZED INTERNAL COORDINATES **
   Searching for a Minimum

   Optimization Cycle:   2

                       Coordinates (Angstroms)
     ATOM                X               Y               Z
      1  Fe        2.2889493612    0.1806882948   -0.1938697890
      2  N         1.6940844807    1.9854434685   -0.6406389728
      3  C         0.7149219673    2.6802519586   -0.0227183345
      4  H         0.1345808109    2.3474567488    0.8288929371
      5  N         0.5713810317    3.8741548164   -0.6318962490
      6  H        -0.0866531062    4.5983474216   -0.3601656505
      7  C         1.4723686360    3.9690078710   -1.6864474686
      8  H         1.5266461365    4.8371092343   -2.3308241583
      9  C         2.1721990478    2.7893604023   -1.6874642441
     10  H         2.9526349811    2.4639050811   -2.3635609273
     11  N         2.9290766648   -1.6658186831   -0.3417354985
     12  C         2.2008145471   -2.7879411870   -0.1581292116
     13  H         1.1598185344   -2.8230417519    0.1389409097
     14  N         2.9803329390   -3.8645444920   -0.3916265116
     15  H         2.6822477806   -4.8330299812   -0.3176130756
     16  C         4.2559850873   -3.4469528837   -0.7477604235
     17  H         5.0510481481   -4.1409421658   -0.9905724943
     18  C         4.2208692308   -2.0756412111   -0.7150342049
     19  H         5.0122435529   -1.3760600411   -0.9580040019
     20  N         3.9634447623    0.7454280831    0.9589919621
     21  H         4.3342980552   -0.1306790601    1.3499926077
     22  C         4.8604391524    1.5169506737    0.1246331864
     23  H         5.4791188206    1.0482068694   -0.6339768251
[...]
    1   0.0001076  -0.0049073   0.0015130   0.0009029  -0.0006391   0.0004507
    2  -0.0000349   0.0003367   0.0010440   0.0003732   0.0000981  -0.0002916
    3  -0.0001012  -0.0053242   0.0026855   0.0018102  -0.0009056   0.0004235
           25          26          27          28          29          30
    1  -0.0001580   0.0003278   0.0034174  -0.0006257   0.0000259   0.0000800
    2   0.0000159  -0.0000714   0.0007489   0.0000100  -0.0000927  -0.0000351
    3  -0.0000418   0.0007798   0.0014505  -0.0006896  -0.0000573  -0.0000127
           31          32          33          34          35          36
    1   0.0000797   0.0000639  -0.0004877   0.0002171  -0.0000262  -0.0001789
    2   0.0000488  -0.0000479   0.0004183  -0.0000807   0.0002753  -0.0000544
    3  -0.0001609   0.0004220   0.0003043   0.0000468   0.0000338  -0.0000328
           37          38          39          40          41          42
    1  -0.0004664   0.0018692  -0.0001531  -0.0000750   0.0000296   0.0017126
    2   0.0010005   0.0010789  -0.0000756   0.0000491   0.0001405  -0.0002176
    3  -0.0005449  -0.0012227  -0.0000554   0.0000307  -0.0000165  -0.0000064
           43          44          45          46          47          48
    1   0.0001216   0.0031012  -0.0000633  -0.0005806   0.0000347  -0.0050206
    2   0.0001246   0.0005977   0.0000003  -0.0005407   0.0001187  -0.0013143
    3   0.0001366  -0.0007885  -0.0000351  -0.0003007   0.0001560   0.0005985
           49          50          51          52          53          54
    1   0.0012439   0.0036005   0.0035388   0.0001603   0.0001440  -0.0002812
    2  -0.0011380   0.0031360   0.0015781   0.0000752   0.0001667   0.0000397
    3   0.0006333  -0.0036387   0.0028103   0.0001641   0.0001415  -0.0000767
           55          56          57          58          59          60
    1  -0.0000352  -0.0002555   0.0002401   0.0001205  -0.0026963   0.0000497
    2  -0.0002868   0.0003230  -0.0000218   0.0000882  -0.0010271  -0.0003330
    3  -0.0003220   0.0001919  -0.0000075   0.0003000  -0.0019140  -0.0000244
           61          62          63          64          65          66
    1   0.0000617  -0.0021126   0.0046546   0.0009545  -0.0001098  -0.0000263
    2  -0.0002557   0.0010031  -0.0007889  -0.0021966   0.0000701   0.0002904
    3   0.0000299  -0.0005810  -0.0000822   0.0018513  -0.0003448   0.0001929
           67          68          69          70
    1  -0.0002056  -0.0004525   0.0007783  -0.0000649
    2   0.0000380   0.0000763  -0.0003749   0.0001805
    3  -0.0001173  -0.0004743   0.0002358  -0.0000529
 Max gradient component =       8.864E-03
 RMS gradient           =       1.724E-03
 Gradient time:  CPU 4703.35 s  wall 760.07 s
 Geometry Optimization Parameters
   NAtoms,    NIC,     NZ,  NCons,   NDum,   NFix, NCnnct, MaxDiis
       70     546       0       0       0       0       0       0

 Cartesian Hessian Update
 Hessian Updated using BFGS Update


** GEOMETRY OPTIMIZATION IN DELOCALIZED INTERNAL COORDINATES **
   Searching for a Minimum

   Optimization Cycle:   7

                       Coordinates (Angstroms)
     ATOM                X               Y               Z
      1  Fe        2.1012569054    0.1608914734   -0.2526853050
      2  N         1.7744376238    2.0566717486   -0.7951121195
      3  C         0.8895337522    2.8895197845   -0.2275470372
      4  H         0.2585569336    2.6249024325    0.6121232736
      5  N         0.9221548883    4.0802787845   -0.8620677344
      6  H         0.3639893204    4.8928802549   -0.6271152672
      7  C         1.8726487151    4.0269280592   -1.8821838067
      8  H         2.0726206458    4.8704636481   -2.5297876163
      9  C         2.4033791360    2.7636681218   -1.8307986116
     10  H         3.1675001566    2.3179530092   -2.4560868065
     11  N         2.7924408523   -1.6895608466   -0.6754599345
     12  C         2.0960397188   -2.8336007687   -0.6359892193
     13  H         1.0643135016   -2.8872377932   -0.3078448392
     14  N         2.8969704395   -3.8605320745   -1.0057575080
     15  H         2.6200878801   -4.8348351143   -1.0452585703
     16  C         4.1637601827   -3.3669253360   -1.2986083195
     17  H         4.9778447785   -4.0029975306   -1.6219501929
     18  C         4.0953880122   -2.0106849581   -1.0880289527
     19  H         4.8677106642   -1.2631638246   -1.2277004672
     20  N         3.6540857518    0.5591008747    1.3568874850
     21  H         3.9361244454   -0.3650216060    1.6965694134
     22  C         4.6252761654    1.4008349042    0.7309552761
     23  H         5.3904403444    0.9999977348    0.0747408153
     24  C         4.3450737575    2.6770139026    1.1369879238
     25  H         4.8288785418    3.6042134519    0.8551649532
     26  N         3.2734350802    2.6773037067    2.0472074989
     27  C         2.9166542489    1.4277811129    2.2119278774
     28  H         2.1371882324    1.0595875638    2.8728279118
     29  H        -4.7192588716    3.2633429388    0.5088900352
     30  H        -2.3055822034    3.3452369140    1.4655910442
     31  H        -4.7759783916    2.5149822512    2.0935039712
     32  C        -4.7053803786    2.2764105100    1.0169440119
     33  C        -2.2529335113    2.2448277861    1.5462569852
     34  H        -6.8180894955    2.0239388484    0.6047213674
     35  H        -2.3544039031    2.0262491553    2.6247683627
     36  C        -5.8895697585    1.4359813544    0.5545270574
     37  C        -3.3718912048    1.6264205946    0.7565290844
     38  H        -1.2592060780    1.9308117252    1.2064795213
     39  H        -5.4667693034    1.8357323104   -1.5183364554
     40  C        -5.6264180851    0.9552493635   -0.8669699138
     41  H        -6.0312424628    0.5778573335    1.2356929433
     42  C        -3.2282155754    0.5816097603   -0.1152509987
     43  H        -6.4989273663    0.4201106002   -1.2762431154
     44  O        -0.7560925555    0.6151954323   -0.7979199913
     45  H        -3.6212232052    0.9399087489   -2.8088073532
     46  C        -4.3920950747    0.0307389680   -0.9642033531
     47  C        -3.9875907191   -0.0377181357   -2.4531356169
     48  C        -1.9625267939   -0.1788269092   -0.2770120730
     49  H        -1.1103780640   -0.1157945508    1.7944958620
     50  O         0.1752862409   -0.3285727295    0.0948405027
     51  C        -1.1226631613   -0.7329704581    0.8882018737
     52  H        -4.8718586952   -0.3031447464   -3.0557331382
     53  C        -4.7629608934   -1.3851292633   -0.4692218722
     54  H        -5.1424360495   -1.3659281980    0.5660442729
     55  H        -3.2194825153   -0.8012555495   -2.6673885099
     56  H        -2.1018021280   -0.9901039220   -1.0011591113
     57  H        -5.5490507245   -1.8169515205   -1.1114568199
     58  H        -2.7981784806   -1.8338857564    2.7278258460
     59  C        -1.3033998076   -2.1752777525    1.2122619602
     60  H        -1.1850815155   -2.1628313861    3.3847428353
     61  H        -3.9026361445   -2.0800784878   -0.4991744966
     62  C        -1.8841583616   -2.4356920288    2.5730361946
     63  H        -0.7163261764   -2.7899937261   -0.7195228756
     64  C        -1.0626375932   -3.1302506932    0.2674728399
     65  H        -2.1646469720   -3.4865117241    2.7132173584
     66  C        -1.1742195966   -4.5657234852    0.4038402232
     67  H        -1.4512820829   -4.9741703261    1.3790497235
     68  H        -0.7106574785   -5.0466100692   -1.6337634613
     69  C        -0.9485420289   -5.4147401600   -0.6280264043
     70  H        -1.0478744831   -6.4950815125   -0.5157097883
   Point Group: c1    Number of degrees of freedom:   204


   Energy is  -2714.292018457

 Hessian Updated using BFGS Update

199 Hessian modes will be used to form the next step
  Hessian Eigenvalues:
     0.001944    0.002115    0.002697    0.003195    0.003323    0.003440
     0.004108    0.005225    0.005251    0.007079    0.008404    0.008976
     0.009015    0.010237    0.010848    0.010991    0.011696    0.012500
     0.012720    0.013177    0.013900    0.014484    0.016112    0.016527
     0.017078    0.017292    0.017812    0.018480    0.019423    0.019541
     0.020087    0.020332    0.020444    0.020507    0.020875    0.021093
     0.022349    0.022618    0.023098    0.023149    0.023972    0.026180
     0.028571    0.028810    0.029681    0.031027    0.036223    0.039005
     0.043365    0.044137    0.047992    0.049193    0.049738    0.052155
     0.053099    0.053543    0.054386    0.055170    0.055437    0.056425
     0.056771    0.059844    0.060854    0.062216    0.067745    0.069378
     0.070089    0.072102    0.073609    0.077122    0.077407    0.078540
     0.079286    0.083921    0.084958    0.089384    0.096839    0.097135
     0.098814    0.101191    0.117371    0.121147    0.121825    0.128334
     0.131095    0.134896    0.137735    0.142724    0.150241    0.159286
     0.159824    0.159842    0.159906    0.159955    0.159983    0.159989
     0.159995    0.159998    0.159998    0.160000    0.160000    0.160000
     0.160036    0.160083    0.160311    0.160448    0.163117    0.166164
     0.176399    0.179252    0.187469    0.190132    0.197593    0.205594
     0.207926    0.217613    0.220074    0.220329    0.223880    0.227953
     0.229600    0.231516    0.234927    0.236462    0.240582    0.244878
     0.250730    0.256001    0.269973    0.275240    0.280238    0.281005
     0.281609    0.283111    0.288094    0.292733    0.298851    0.306954
     0.315685    0.317606    0.322784    0.325403    0.328613    0.329196
     0.329770    0.329830    0.329886    0.330198    0.330258    0.330734
     0.331762    0.332228    0.332282    0.332479    0.333009    0.333507
     0.333581    0.334179    0.335107    0.335549    0.337947    0.338817
     0.339610    0.342270    0.342561    0.343605    0.345568    0.352071
     0.352512    0.353658    0.353736    0.354813    0.355378    0.356197
     0.356593    0.356850    0.365117    0.383700    0.391762    0.410751
     0.412167    0.416735    0.428629    0.437531    0.445614    0.448942
     0.449068    0.471736    0.473333    0.496827    0.505842    0.511638
     0.521991    0.537338    0.538346    0.546172    0.561548    0.579179
     0.645590

 Minimum Search - Taking Simple RFO Step
 Searching for Lamda that Minimizes Along All modes
 Value Taken    Lamda =  -0.01085690
 Calculated Step too Large.  Step scaled by  0.363972
 Step Taken.  Stepsize is  0.300000

                             Maximum     Tolerance    Cnvgd?
         Gradient           0.006364      0.000300      NO
         Displacement       0.075035      0.001200      NO
         Energy change     -0.003581      0.000001      NO


 New Cartesian Coordinates Obtained by Inverse Iteration

 Displacement from previous Coordinates is:  1.480572
 ----------------------------------------------------------------
             Standard Nuclear Orientation (Angstroms)
    I     Atom           X                Y                Z
 ----------------------------------------------------------------
    1      Fe      2.0875664250     0.1767730059    -0.2878700424
    2      N       1.8218277054     2.0725665113    -0.8490292760
    3      C       0.9466956331     2.9243097761    -0.2908915617
    4      H       0.3012777853     2.6769228387     0.5428642263
    5      N       1.0117712591     4.1127447973    -0.9275595795
    6      H       0.4684628797     4.9376768768    -0.7001760182
    7      C       1.9703515484     4.0375138934    -1.9379332546
    8      H       2.1938350173     4.8761466703    -2.5844154276
    9      C       2.4740825496     2.7631773765    -1.8799484288
   10      H       3.2352491701     2.3008629334    -2.4968592024
   11      N       2.7861564354    -1.6545859010    -0.7548509273
   12      C       2.0864273611    -2.8000742000    -0.7282713893
   13      H       1.0573781419    -2.8669594757    -0.3927826268
   14      N       2.8859243281    -3.8204761675    -1.1188183169
   15      H       2.6109976828    -4.7947235818    -1.1724800960
   16      C       4.1507282807    -3.3230131790    -1.4117190645
   17      H       4.9617997190    -3.9553424527    -1.7499037269
   18      C       4.0850828848    -1.9702000714    -1.1797711689
   19      H       4.8569063411    -1.2207503294    -1.3103522828
   20      N       3.5662787121     0.5193142144     1.4307420293
   21      H       3.8179575554    -0.4151032883     1.7623402840
   22      C       4.5659898276     1.3675566009     0.8675969547
   23      H       5.3755688756     0.9736055933     0.2628364678
   24      C       4.2469708681     2.6413769934     1.2548382485
   25      H       4.7395404532     3.5732677920     1.0057229140
   26      N       3.1155722722     2.6301658323     2.0876483406
   27      C       2.7610970658     1.3751037714     2.2294537159
   28      H       1.9399076904     0.9996654075     2.8329875471
   29      H      -4.7186883842     3.2658546180     0.4715134087
   30      H      -2.3202200773     3.3760300174     1.4208612189
   31      H      -4.7783013196     2.5432866024     2.0677721649
   32      C      -4.7050240939     2.2869750487     0.9953289159
   33      C      -2.2515862078     2.2778493420     1.5194195677
   34      H      -6.8163260365     2.0283554837     0.5798400168
   35      H      -2.3419937993     2.0766737030     2.6023499005
   36      C      -5.8875354080     1.4395949671     0.5412416125
   37      C      -3.3702437019     1.6348343019     0.7479002418
   38      H      -1.2547867204     1.9764174273     1.1769494570
   39      H      -5.4560489822     1.8123804212    -1.5351127931
   40      C      -5.6190321650     0.9404010070    -0.8731433934
   41      H      -6.0322369898     0.5906328850     1.2332753489
   42      C      -3.2261291311     0.5752863276    -0.1068106846
   43      H      -6.4901099316     0.4001448604    -1.2792590971
   44      O      -0.7515160702     0.6011678156    -0.7641879737
   45      H      -3.6013196294     0.8954311518    -2.8045745239
   46      C      -4.3850874101     0.0139292845    -0.9522836363
   47      C      -3.9700894166    -0.0766281446    -2.4364417734
   48      C      -1.9606592738    -0.1890719265    -0.2474174266
   49      H      -1.1322383792    -0.1102420812     1.8281730034
   50      O       0.1714636824    -0.3361754558     0.1478031690
   51      C      -1.1378667109    -0.7378038717     0.9294769480
   52      H      -4.8492267490    -0.3523176840    -3.0424773164
   53      C      -4.7587132923    -1.3944502238    -0.4388673031
   54      H      -5.1401400287    -1.3615214782     0.5952436259
   55      H      -3.1993890938    -0.8429144500    -2.6306141584
   56      H      -2.0908537467    -1.0068584764    -0.9669818748
   57      H      -5.5434690896    -1.8346894197    -1.0773550588
   58      H      -2.7160074429    -1.8768253505     2.8454342376
   59      C      -1.2875612741    -2.1787347985     1.2636295784
   60      H      -1.0687406250    -2.1734849315     3.4295357656
   61      H      -3.8984812993    -2.0894991923    -0.4571926461
   62      C      -1.7973689918    -2.4584144361     2.6485939704
   63      H      -0.8026016240    -2.7770020844    -0.7070860887
   64      C      -1.0794259337    -3.1243020122     0.2999916499
   65      H      -2.0503936179    -3.5150626860     2.7973480721
   66      C      -1.1592732011    -4.5620560220     0.4380057330
   67      H      -1.3713816279    -4.9771123249     1.4265755599
   68      H      -0.8047705726    -5.0319593006    -1.6237095453
   69      C      -0.9815280176    -5.4053479546    -0.6079073492
   70      H      -1.0570930580    -6.4875009777    -0.4929302124
 ----------------------------------------------------------------
 Molecular Point Group                 C1    NOp =  1
 Largest Abelian Subgroup              C1    NOp =  1
 Nuclear Repulsion Energy =  4369.2230456447 hartrees
 There are      136 alpha and      132 beta electrons
 Applying Cartesian multipole field
    Component          Value
    ---------          -----
     (2,0,0)        1.00000E-12
     (0,2,0)        2.00000E-12
     (0,0,2)       -3.00000E-11
 Nucleus-field energy     =    -0.0000000263 hartrees
 Requested basis set is VDZ
 There are 246 shells and 390 basis functions
 A cutoff of  1.0D-12 yielded  20597 shell pairs
 There are     53331 function pairs (     53939 Cartesian)
 Smallest overlap matrix eigenvalue = 7.90E-04
 Guess MOs from SCF MO coefficient file

 -----------------------------------------------------------------------
  General SCF calculation program by
  Eric Jon Sundstrom, Paul Horn, Yuezhi Mao, Dmitri Zuev, Alec White,
  David Stuck, Shaama M.S., Shane Yost, Joonho Lee, David Small,
  Daniel Levine, Susi Lehtola, Hugh Burton, Evgeny Epifanovsky
 -----------------------------------------------------------------------
 Exchange:  B97M-V      Correlation:  B97M-V
 Using SG-2 standard quadrature grid
 Nonlocal Correlation:  rVV10 with C = 0.0100 and b = 6.00 and scale = 1.00000
 Grid used for NLC:  SG-1 standard quadrature
 using 12 threads for integral computing
 -------------------------------------------------------
 OpenMP Integral computing Module                
 Release: version 1.0, May 2013, Q-Chem Inc. Pittsburgh 
 -------------------------------------------------------
 -------------------------------------------------------
 OpenMP BLAS3 based DFT computing Module                
 Release: version 1.0, May 2013, Q-Chem Inc. Pittsburgh 
 -------------------------------------------------------
 -------------------------------------------------------
 OpenMP BLAS3 based DFT computing Module                
 Release: version 1.0, May 2013, Q-Chem Inc. Pittsburgh 
 -------------------------------------------------------
 -------------------------------------------------------
 OpenMP BLAS3 based DFT computing Module                
 Release: version 1.0, May 2013, Q-Chem Inc. Pittsburgh 
 -------------------------------------------------------
 Nonlocal correlation = 0.985855329541
 A unrestricted SCF calculation will be
 performed using DIIS, GDM
 SCF converges when RMS gradient is below 1.0e-08
 ---------------------------------------
  Cycle       Energy         DIIS error
 ---------------------------------------
 Nonlocal correlation = 9.858356675447e-01
    1   -2714.2820771666      2.72e-04  
    2   -2714.2951217063      5.41e-05  Done DIIS. Switching to GDM
 ---------------------------------------
  Cycle       Energy        RMS Gradient
 ---------------------------------------
 Nonlocal correlation = 9.858398378778e-01
    1   -2714.2951217063      6.13e-03   Normal BFGS step
 Nonlocal correlation = 9.858366470932e-01
    2   -2714.2935860930      2.06e-02  Line search: overstep
 Nonlocal correlation = 9.858431536744e-01
    3   -2714.2953641265      1.81e-03   Normal BFGS step
 Nonlocal correlation = 9.858398098410e-01
    4   -2714.2953607516      2.73e-03  Line search: overstep
 Nonlocal correlation = 9.858509847934e-01
    5   -2714.2953931618      1.54e-03   Normal BFGS step
 Nonlocal correlation = 9.858466719132e-01
    6   -2714.2953959788      1.18e-03   Normal BFGS step
 Nonlocal correlation = 9.858428335217e-01
    7   -2714.2954101558      6.50e-04   Normal BFGS step
 Nonlocal correlation = 9.858448254250e-01
    8   -2714.2954097664      1.26e-03  Line search: overstep
 Nonlocal correlation = 9.858455397542e-01
    9   -2714.2954124968      5.56e-04   Normal BFGS step
 Nonlocal correlation = 9.858452769923e-01
   10   -2714.2954137506      4.15e-04   Normal BFGS step
 Nonlocal correlation = 9.858466221808e-01
   11   -2714.2954152277      4.99e-04   Normal BFGS step
 Nonlocal correlation = 9.858448801978e-01
   12   -2714.2954158012      3.61e-04   Normal BFGS step
 Nonlocal correlation = 9.858441055945e-01
   13   -2714.2954161799      9.94e-05   Normal BFGS step
