
Running Job 1 of 1 sys_2_car_1_epox_opt_vdz_mgga.in
qchem sys_2_car_1_epox_opt_vdz_mgga.in_332.0 /scr/c295_lal/157311/qchem332/ 1
/usr/software/qchem_511/exe/qcprog.exe_s sys_2_car_1_epox_opt_vdz_mgga.in_332.0 /scr/c295_lal/157311/qchem332/
Check license passed

                  Welcome to Q-Chem
     A Quantum Leap Into The Future Of Chemistry


 Q-Chem 5.1, Q-Chem, Inc., Pleasanton, CA (2018)

 Yihan Shao,  Zhengting Gan,  E. Epifanovsky,  A. T. B. Gilbert,  M. Wormit,  
 J. Kussmann,  A. W. Lange,  A. Behn,  Jia Deng,  Xintian Feng,  D. Ghosh,  
 M. Goldey,  P. R. Horn,  L. D. Jacobson,  I. Kaliman,  T. Kus,  A. Landau,  
 Jie Liu,  E. I. Proynov,  R. M. Richard,  R. P. Steele,  E. J. Sundstrom,  
 H. L. Woodcock III,  P. M. Zimmerman,  D. Zuev,  B. Albrecht,  E. Alguire,  
 S. A. Baeppler,  D. Barton,  Z. Benda,  Y. A. Bernard,  E. J. Berquist,  
 K. B. Bravaya,  H. Burton,  D. Casanova,  Chun-Min Chang,  Yunqing Chen,  
 A. Chien,  K. D. Closser,  M. P. Coons,  S. Coriani,  S. Dasgupta,  
 A. L. Dempwolff,  M. Diedenhofen,  Hainam Do,  R. G. Edgar,  Po-Tung Fang,  
 S. Faraji,  S. Fatehi,  Qingguo Feng,  K. D. Fenk,  J. Fosso-Tande,  
 Qinghui Ge,  A. Ghysels,  G. Gidofalvi,  J. Gomes,  J. Gonthier,  A. Gunina,  
 D. Hait,  M. W. D. Hanson-Heine,  P. H. P. Harbach,  A. W. Hauser,  
 J. E. Herr,  E. G. Hohenstein,  Z. C. Holden,  Kerwin Hui,  B. C. Huynh,  
 T.-C. Jagau,  Hyunjun Ji,  B. Kaduk,  K. Khistyaev,  Jaehoon Kim,  
 P. Klunzinger,  K. Koh,  D. Kosenkov,  L. Koulias,  T. Kowalczyk,  
 C. M. Krauter,  A. Kunitsa,  Ka Un Lao,  A. Laurent,  K. V. Lawler,  
 Joonho Lee,  D. Lefrancois,  S. Lehtola,  D. S. Levine,  Yi-Pei Li,  
 You-Sheng Lin,  Fenglai Liu,  E. Livshits,  A. Luenser,  P. Manohar,  
 E. Mansoor,  S. F. Manzer,  Shan-Ping Mao,  Yuezhi Mao,  N. Mardirossian,  
 A. V. Marenich,  T. Markovich,  L. A. Martinez-Martinez,  S. A. Maurer,  
 N. J. Mayhall,  S. C. McKenzie,  J.-M. Mewes,  A. F. Morrison,  
 J. W. Mullinax,  K. Nanda,  T. S. Nguyen-Beck,  R. Olivares-Amaya,  
 J. A. Parkhill,  T. M. Perrine,  F. Plasser,  P. Pokhilko,  S. Prager,  
 A. Prociuk,  E. Ramos,  D. R. Rehn,  F. Rob,  M. Schneider,  N. Sergueev,  
 S. M. Sharada,  S. Sharma,  D. W. Small,  T. Stauch,  T. Stein,  
 Yu-Chuan Su,  A. J. W. Thom,  A. Tkatchenko,  T. Tsuchimochi,  N. M. Tubman,  
 L. Vogt,  M. L. Vidal,  O. Vydrov,  M. A. Watson,  J. Wenzel,  
 M. de Wergifosse,  T. A. Wesolowski,  A. White,  J. Witte,  A. Yamada,  
 Jun Yang,  K. Yao,  S. Yeganeh,  S. R. Yost,  Zhi-Qiang You,  A. Zech,  
 Igor Ying Zhang,  Xing Zhang,  Yan Zhao,  Ying Zhu,  B. R. Brooks,  
 G. K. L. Chan,  C. J. Cramer,  M. S. Gordon,  W. J. Hehre,  A. Klamt,  
 M. W. Schmidt,  C. D. Sherrill,  D. G. Truhlar,  A. Aspuru-Guzik,  R. Baer,  
 A. T. Bell,  N. A. Besley,  Jeng-Da Chai,  A. E. DePrince, III,  
 R. A. DiStasio Jr.,  A. Dreuw,  B. D. Dunietz,  T. R. Furlani,  
 Chao-Ping Hsu,  Yousung Jung,  Jing Kong,  D. S. Lambrecht,  WanZhen Liang,  
 C. Ochsenfeld,  V. A. Rassolov,  L. V. Slipchenko,  J. E. Subotnik,  
 T. Van Voorhis,  J. M. Herbert,  A. I. Krylov,  P. M. W. Gill,  M. Head-Gordon

 Contributors to earlier versions of Q-Chem not listed above: 
 R. D. Adamson,  B. Austin,  J. Baker,  G. J. O. Beran,  K. Brandhorst,  
 S. T. Brown,  E. F. C. Byrd,  A. K. Chakraborty,  C.-L. Cheng,  
 Siu Hung Chien,  D. M. Chipman,  D. L. Crittenden,  H. Dachsel,  
 R. J. Doerksen,  A. D. Dutoi,  L. Fusti-Molnar,  W. A. Goddard III,  
 A. Golubeva-Zadorozhnaya,  S. R. Gwaltney,  G. Hawkins,  A. Heyden,  
 S. Hirata,  G. Kedziora,  F. J. Keil,  C. Kelley,  Jihan Kim,  R. A. King,  
 R. Z. Khaliullin,  P. P. Korambath,  W. Kurlancheek,  A. M. Lee,  M. S. Lee,  
 S. V. Levchenko,  Ching Yeh Lin,  D. Liotard,  R. C. Lochan,  I. Lotan,  
 P. E. Maslen,  N. Nair,  D. P. O'Neill,  D. Neuhauser,  E. Neuscamman,  
 C. M. Oana,  R. Olson,  B. Peters,  R. Peverati,  P. A. Pieniazek,  
 Y. M. Rhee,  J. Ritchie,  M. A. Rohrdanz,  E. Rosta,  N. J. Russ,  
 H. F. Schaefer III,  N. E. Schultz,  N. Shenvi,  A. C. Simmonett,  A. Sodt,  
 D. Stuck,  K. S. Thanthiriwatte,  V. Vanovschi,  Tao Wang,  A. Warshel,  
 C. F. Williams,  Q. Wu,  X. Xu,  W. Zhang

 Please cite Q-Chem as follows:
 Y. Shao et al., Mol. Phys. 113, 184-215 (2015)
 DOI: 10.1080/00268976.2014.952696

 Q-Chem 5.1.1 for Intel X86 EM64T Linux

 Parts of Q-Chem use Armadillo 8.300.2 (Tropical Shenanigans).
 http://arma.sourceforge.net/

 Q-Chem begins on Tue Nov 27 22:43:00 2018  

Host: cub-0-15.local
0

     Scratch files written to /scr/c295_lal/157311/qchem332//
 Aug318 |scratch|qcdevops|jenkins|workspace|build_RNUM -1
Processing $rem in /usr/software/qchem_511/config/preferences.
 MEM_TOTAL  2000 
Input Ideriv = 2
Curr. Ideriv = -1
Max.  Ideriv = 2
Input Ideriv = 1
Curr. Ideriv = 2
Max.  Ideriv = 1

Checking the input file for inconsistencies... 	...done.

--------------------------------------------------------------
User input:
--------------------------------------------------------------
$molecule
2 3
Fe         0.29287       -0.25576        0.08878
O          0.53560       -1.96218        0.74805
H         -1.33811       -4.65395        1.32837
H         -2.06831        0.13155        2.84637
H         -3.83821       -1.76685        3.01587
O          1.19969       -1.71685        2.60387
H         -0.34831       -0.30515        3.01007
H         -3.40891       -4.25215        2.51877
C         -1.05921       -5.19045        2.25117
C         -1.33701       -0.42045        3.46607
H          5.68359       -3.24015        1.61527
C         -1.77071       -1.85785        3.59227
H          3.43529       -2.51485        2.42617
H         -1.57441       -6.16705        2.24907
H          0.02169       -5.39675        2.21507
C         -3.24011       -1.99135        3.92447
C         -0.96021       -2.94095        3.43697
C          0.51549       -2.87745        3.25797
C         -3.02791       -4.42475        3.54407
H          0.97939       -3.81175        2.93347
C          5.96699       -3.39535        2.66117
C         -1.48431       -4.39045        3.50337
H         -1.34591        0.07655        4.45527
C          3.73839       -2.69645        3.46307
H         -3.50781       -1.19615        4.64587
C          1.44789       -1.99825        4.03457
C         -3.61661       -3.36525        4.46517
H         -3.34791       -5.44185        3.83267
H         -4.71201       -3.46875        4.53387
H          6.98479       -3.74355        2.84917
C          5.09419       -3.16355        3.66787
C          2.80649       -2.44515        4.42167
H          0.97289       -1.27365        4.70957
C         -0.91261       -5.08745        4.75717
H         -3.22491       -3.48595        5.49197
H          0.19099       -5.06525        4.76327
H         -1.22371       -6.14685        4.78507
H          5.42539       -3.33555        4.69747
H         -1.26131       -4.59885        5.68277
C          3.00389       -2.59775        5.90237
H          2.80059       -1.64495        6.42577
H          4.02159       -2.91235        6.16737
H          2.30019       -3.33985        6.32557
$end

$rem
BASIS = VDZ
METHOD  = B97M-rV
JOBTYPE = OPT
MAX_SCF_CYCLES = 500
SCF_ALGORITHM = DIIS_GDM
$end
--------------------------------------------------------------
 ----------------------------------------------------------------
             Standard Nuclear Orientation (Angstroms)
    I     Atom           X                Y                Z
 ----------------------------------------------------------------
    1      Fe     -0.2651435580     3.6600742574     0.2214037576
    2      O      -0.3385819123     2.0261512839     1.0759951962
    3      H       1.7735863384    -0.0134628191     2.6482247567
    4      H       2.1675416354     2.0464969954    -1.9712872389
    5      H       4.0938193946     0.8262953875    -0.7199835785
    6      O      -0.9436481768     0.7375987245    -0.3092114045
    7      H       0.4977486352     1.4904030019    -1.6911883508
    8      H       3.8513598791    -0.4663607298     1.4887211405
    9      C       1.5782609273    -1.0814087159     2.4519676666
   10      C       1.5105432174     1.1571645385    -1.9401000636
   11      H      -5.3231609721     0.0977188364     1.6436207604
   12      C       2.0664345766     0.1573995859    -0.9594901888
   13      H      -3.1110309174     0.1568027770     0.4854059707
   14      H       2.1719177601    -1.6759028746     3.1684390688
   15      H       0.5175526450    -1.2819312252     2.6685233707
   16      C       3.5542772980    -0.0537805004    -1.1299086662
   17      C       1.3425532958    -0.5052579930    -0.0155543995
   18      C      -0.1394622723    -0.4554572963     0.1065663875
   19      C       3.5285068479    -1.3814321849     0.9552401171
   20      H      -0.5375004239    -0.8639919828     1.0382771741
   21      C      -5.5494211936    -0.8130632400     1.0800679841
   22      C       1.9869945043    -1.4603533332     1.0104224228
   23      H       1.5190721280     0.7413964160    -2.9660966406
   24      C      -3.3550949568    -0.7662134744    -0.0517006521
   25      H       3.7848094508    -0.0510187033    -2.2121616814
   26      C      -1.1085690568    -0.5416416769    -1.0331152578
   27      C       4.0650422705    -1.3278504719    -0.4684142968
   28      H       3.9431251229    -2.2372954408     1.5171761841
   29      H       5.1671464417    -1.3536082957    -0.4744168217
   30      H      -6.5263329103    -1.2693621313     1.2530965932
   31      C      -4.6580383127    -1.3419429516     0.2113454851
   32      C      -2.4084590156    -1.2411665095    -0.9054004058
   33      H      -0.6676979463    -0.5326166841    -2.0390210056
   34      C       1.5270301684    -2.9069051550     0.7265475091
   35      H       3.7273056481    -2.2109444962    -1.0414714826
   36      H       0.4265651383    -2.9912651223     0.7445231415
   37      H       1.9255418968    -3.5956279541     1.4925366007
   38      H      -4.9311767249    -2.2555910117    -0.3271674953
   39      H       1.8719799623    -3.2514088309    -0.2630907415
   40      C      -2.5313862318    -2.4691627086    -1.7607601222
   41      H      -2.3861677422    -2.2200303219    -2.8284449700
   42      H      -3.5078037156    -2.9612100753    -1.6637563265
   43      H      -1.7518999034    -3.2129829504    -1.5075075769
 ----------------------------------------------------------------
 Molecular Point Group                 C1    NOp =  1
 Largest Abelian Subgroup              C1    NOp =  1
 Nuclear Repulsion Energy =  1765.6722991337 hartrees
 There are       81 alpha and       79 beta electrons
 Requested basis set is VDZ
 There are 147 shells and 231 basis functions

 Total QAlloc Memory Limit   2000 MB
 Mega-Array Size       188 MB
 MEM_STATIC part       192 MB
 A cutoff of  1.0D-12 yielded   8921 shell pairs
 There are     22351 function pairs (     22697 Cartesian)
 
 -------------------------------------------------------
 OpenMP Integral Computing Module                       
 Release: version 1.0, May 2013, Q-Chem Inc. Pittsburgh 
 -------------------------------------------------------
 Integral Job Info:
 Integral job number is                      11
 Integral operator is                         1
 short-range coefficients                     0
 long-range coefficients              100000000
 Omega coefficients                           0
 if combine SR and LR in K                    0
 Integral screening is                        0
 Integral computing path is                   2
 max size of driver memory is            800000
 size of driver memory is                593474
 size of scratch memory is             29634545
 max col of scratch BK array               1296
 max len of scratch array in speh3          155
 max len of scratch index in speh4           18
 max int batch size is                      520
 min int batch size is                       52
 fixed nKL is                                45
 max L of basis functions is                  2
 order of int derivative is                   0
 number of shells is                        147
 number of basis is                         233
 number of cartesian basis is               233
 number of contracted shell pairs          8921
 number of primitive shell pairs          25161
 maxK2 (contraction) of shell pair           36
 max number of K2 of shell pair               1
 max number of CS2 of shell pair           2120
 max number of PS2 of shell pair           5360
 mem total for path MDJ                  593126
 -------------------------------------------------------
 Smallest overlap matrix eigenvalue = 7.96E-04

 Scale SEOQF with 1.000000e-02/1.000000e-01/1.000000e-01

 Standard Electronic Orientation quadrupole field applied
 Nucleus-field energy     =     0.0000000269 hartrees
 Guess from superposition of atomic densities
 Warning:  Energy on first SCF cycle will be non-variational
 SAD guess density has 162.000000 electrons

 -----------------------------------------------------------------------
  General SCF calculation program by
  Eric Jon Sundstrom, Paul Horn, Yuezhi Mao, Dmitri Zuev, Alec White,
  David Stuck, Shaama M.S., Shane Yost, Joonho Lee, David Small,
  Daniel Levine, Susi Lehtola, Hugh Burton, Evgeny Epifanovsky
 -----------------------------------------------------------------------
 Exchange:  B97M-V      Correlation:  B97M-V
 Using SG-2 standard quadrature grid
 Nonlocal Correlation:  rVV10 with C = 0.0100 and b = 6.00 and scale = 1.00000
 Grid used for NLC:  SG-1 standard quadrature
 using 12 threads for integral computing
 -------------------------------------------------------
 OpenMP Integral computing Module                
 Release: version 1.0, May 2013, Q-Chem Inc. Pittsburgh 
 -------------------------------------------------------
 -------------------------------------------------------
 OpenMP BLAS3 based DFT computing Module                
 Release: version 1.0, May 2013, Q-Chem Inc. Pittsburgh 
 -------------------------------------------------------
 -------------------------------------------------------
 OpenMP BLAS3 based DFT computing Module                
 Release: version 1.0, May 2013, Q-Chem Inc. Pittsburgh 
 -------------------------------------------------------
 -------------------------------------------------------
 OpenMP BLAS3 based DFT computing Module                
 Release: version 1.0, May 2013, Q-Chem Inc. Pittsburgh 
 -------------------------------------------------------
 Nonlocal correlation = 0.580589071368
 A unrestricted SCF calculation will be
 performed using DIIS, GDM
 SCF converges when RMS gradient is below 1.0e-08
 ---------------------------------------
  Cycle       Energy         DIIS error
 ---------------------------------------
 Nonlocal correlation = 6.064802362966e-01
    1   -2039.5107626423      3.00e-02  
    2   -2034.1772145441      7.31e-03  Done DIIS. Switching to GDM
 ---------------------------------------
  Cycle       Energy        RMS Gradient
 ---------------------------------------
 Nonlocal correlation = 6.043359599175e-01
    1   -2034.1772145441      4.47e-01   Descent step
 Nonlocal correlation = 6.027484823128e-01
    2   -2034.8571631601      7.03e-01   Descent step
 Nonlocal correlation = 6.023391041088e-01
    3   -2035.3897321139      6.79e-01   Descent step
 Nonlocal correlation = 6.018159229423e-01
    4   -2035.6437479921      7.07e-01   Descent step
 Nonlocal correlation = 6.021145566658e-01
    5   -2035.2889419176      1.82e+00  Line search: overstep
 Nonlocal correlation = 6.017930606894e-01
    6   -2035.7193404990      3.09e-01   Descent step
 Nonlocal correlation = 6.020587974312e-01
    7   -2035.0031481684      2.17e+00  Line search: overstep
 Nonlocal correlation = 6.010320409374e-01
    8   -2035.7520342406      2.00e-01   Descent step
 Nonlocal correlation = 6.015529570958e-01
    9   -2035.7356748164      1.15e+00  Line search: overstep
 Nonlocal correlation = 6.018039359332e-01
   10   -2035.8116883145      5.87e-01   Descent step
 Nonlocal correlation = 6.015857635356e-01
   11   -2034.7987760027      4.00e+00  Line search: overstep
 Nonlocal correlation = 6.010048671162e-01
   12   -2035.8529932580      1.50e-01   Descent step
 Nonlocal correlation = 6.012577398719e-01
   13   -2035.8868823628      4.08e-01   Descent step
 Nonlocal correlation = 6.010273213436e-01
   14   -2035.4078676644      2.79e+00  Line search: overstep
 Nonlocal correlation = 6.007972329382e-01
   15   -2035.9378909135      1.98e-01   Descent step
 Nonlocal correlation = 6.009640218249e-01
   16   -2035.5359194841      7.06e-01  Line search: overstep
 Nonlocal correlation = 6.011159595807e-01
   17   -2035.9587852004      1.66e-01   Descent step
 Nonlocal correlation = 6.009734892632e-01
   18   -2035.4434660985      1.33e+00  Line search: overstep
 Nonlocal correlation = 6.008390428073e-01
   19   -2035.9698330396      1.26e-01   Descent step
 Nonlocal correlation = 6.009217303937e-01
   20   -2035.7435734174      9.15e-01  Line search: overstep
 Nonlocal correlation = 6.011725189088e-01
   21   -2035.9799160463      2.16e-01   Descent step
 Nonlocal correlation = 6.009426908086e-01
   22   -2035.3602696912      1.14e+00  Line search: overstep
 Nonlocal correlation = 6.010048187404e-01
   23   -2035.9898381361      9.48e-02   Descent step
 Nonlocal correlation = 6.009168948563e-01
   24   -2035.9162246017      5.00e-01  Line search: overstep
 Nonlocal correlation = 6.012088672083e-01
   25   -2036.0048790165      2.52e-01   Descent step
 Nonlocal correlation = 6.009453414386e-01
   26   -2035.2555354587      1.72e+00  Line search: overstep
 Nonlocal correlation = 6.012702988751e-01
   27   -2036.0179706573      1.14e-01   Dog-leg BFGS step
 Nonlocal correlation = 6.009413301568e-01
   28   -2036.0400829701      3.52e-01   Normal BFGS step
 Nonlocal correlation = 6.018782694176e-01
   29   -2036.0954158668      1.64e-01   Descent step
 Nonlocal correlation = 6.011747718385e-01
   30   -2035.9521657621      4.49e-01  Line search: overstep
 Nonlocal correlation = 6.007856639884e-01
   31   -2036.1151086291      1.65e-01   Normal BFGS step
 Nonlocal correlation = 6.010092149859e-01
   32   -2036.1439233614      5.91e-02   Normal BFGS step
 Nonlocal correlation = 6.013372110174e-01
   33   -2036.1496419220      8.06e-02   Normal BFGS step
 Nonlocal correlation = 6.008751967103e-01
   34   -2036.1679914456      6.73e-02   Normal BFGS step
 Nonlocal correlation = 6.011311889139e-01
   35   -2036.1646926681      8.89e-02  Line search: overstep
 Nonlocal correlation = 6.009413918334e-01
   36   -2036.1729792818      1.99e-02   Normal BFGS step
 Nonlocal correlation = 6.010186674607e-01
   37   -2036.1745916535      3.62e-02   Normal BFGS step
 Nonlocal correlation = 6.011465541300e-01
   38   -2036.1755066401      3.98e-02   Normal BFGS step
 Nonlocal correlation = 6.010038916770e-01
   39   -2036.1761696394      1.59e-02   Normal BFGS step
 Nonlocal correlation = 6.010216146745e-01
   40   -2036.1766391706      8.94e-03   Normal BFGS step
 Nonlocal correlation = 6.010624660960e-01
   41   -2036.1769796722      5.75e-03   Normal BFGS step
 Nonlocal correlation = 6.010432868027e-01
   42   -2036.1770883770      6.15e-03   Normal BFGS step
 Nonlocal correlation = 6.010234722689e-01
   43   -2036.1772203072      2.68e-03   Normal BFGS step
 Nonlocal correlation = 6.010298572456e-01
   44   -2036.1772646729      3.05e-03   Normal BFGS step
 Nonlocal correlation = 6.010340246862e-01
   45   -2036.1773110242      2.06e-03   Normal BFGS step
 Nonlocal correlation = 6.010325786840e-01
   46   -2036.1773196709      1.83e-03   Normal BFGS step
 Nonlocal correlation = 6.010359788601e-01
   47   -2036.1773281306      1.20e-03   Normal BFGS step
 Nonlocal correlation = 6.010340381329e-01
   48   -2036.1773327360      1.19e-03   Normal BFGS step
 Nonlocal correlation = 6.010313098860e-01
   49   -2036.1773348741      7.56e-04   Normal BFGS step
 Nonlocal correlation = 6.010334781338e-01
   50   -2036.1773357145      4.98e-04   Normal BFGS step
 Nonlocal correlation = 6.010337697833e-01
   51   -2036.1773365353      2.91e-04   Normal BFGS step
 Nonlocal correlation = 6.010324555192e-01
   52   -2036.1773367364      3.17e-04   Normal BFGS step
 Nonlocal correlation = 6.010332518940e-01
   53   -2036.1773371289      1.95e-04   Normal BFGS step
 Nonlocal correlation = 6.010334901995e-01
   54   -2036.1773372743      1.98e-04   Normal BFGS step
 Nonlocal correlation = 6.010325074157e-01
   55   -2036.1773374144      1.97e-04   Normal BFGS step
 Nonlocal correlation = 6.010335342051e-01
   56   -2036.1773375075      2.66e-04   Normal BFGS step
 Nonlocal correlation = 6.010345750960e-01
   57   -2036.1773376158      2.00e-04   Normal BFGS step
 Nonlocal correlation = 6.010336158986e-01
   58   -2036.1773377851      5.16e-04   Normal BFGS step
 Nonlocal correlation = 6.010326531658e-01
   59   -2036.1773379968      1.83e-04   Normal BFGS step
 Nonlocal correlation = 6.010322268076e-01
   60   -2036.1773385864      1.99e-04   Normal BFGS step
 Nonlocal correlation = 6.010331679861e-01
   61   -2036.1773403181      3.35e-04   Normal BFGS step
 Nonlocal correlation = 6.010320987136e-01
   62   -2036.1773418456      5.78e-04   Normal BFGS step
 Nonlocal correlation = 6.010320791068e-01
   63   -2036.1773436720      5.98e-04   Normal BFGS step
 Nonlocal correlation = 6.010354845350e-01
   64   -2036.1773451985      4.26e-04   Normal BFGS step
 Nonlocal correlation = 6.010335153443e-01
   65   -2036.1773460386      3.98e-04   Normal BFGS step
 Nonlocal correlation = 6.010309172952e-01
   66   -2036.1773464859      2.61e-04   Normal BFGS step
 Nonlocal correlation = 6.010342634874e-01
   67   -2036.1773466879      3.31e-04   Normal BFGS step
 Nonlocal correlation = 6.010342668411e-01
   68   -2036.1773468624      1.15e-04   Normal BFGS step
 Nonlocal correlation = 6.010330898468e-01
   69   -2036.1773469180      9.13e-05   Normal BFGS step
 Nonlocal correlation = 6.010333934834e-01
   70   -2036.1773469627      5.10e-05   Normal BFGS step
 Nonlocal correlation = 6.010337800997e-01
   71   -2036.1773469802      2.83e-05   Normal BFGS step
 Nonlocal correlation = 6.010336127830e-01
   72   -2036.1773469863      2.36e-05   Normal BFGS step
 Nonlocal correlation = 6.010335568110e-01
   73   -2036.1773469888      1.63e-05   Normal BFGS step
 Nonlocal correlation = 6.010336001485e-01
   74   -2036.1773469903      1.04e-05   Normal BFGS step
 Nonlocal correlation = 6.010336278592e-01
   75   -2036.1773469905      1.20e-05   Normal BFGS step
 Nonlocal correlation = 6.010336022018e-01
   76   -2036.1773469909      9.68e-06   Normal BFGS step
 Nonlocal correlation = 6.010336003381e-01
   77   -2036.1773469907      1.76e-05   Normal BFGS step
 Nonlocal correlation = 6.010335752628e-01
   78   -2036.1773469912      8.53e-06   Normal BFGS step
 Nonlocal correlation = 6.010336259153e-01
   79   -2036.1773469911      1.21e-05   Normal BFGS step
 Nonlocal correlation = 6.010335752277e-01
   80   -2036.1773469913      6.80e-06   Normal BFGS step
 Nonlocal correlation = 6.010336002627e-01
   81   -2036.1773469913      5.32e-06   Normal BFGS step
 Nonlocal correlation = 6.010336005605e-01
   82   -2036.1773469914      8.50e-07   Normal BFGS step
 Nonlocal correlation = 6.010336019331e-01
   83   -2036.1773469914      5.66e-07   Normal BFGS step
 Nonlocal correlation = 6.010336006880e-01
   84   -2036.1773469914      3.35e-07   Normal BFGS step
 Nonlocal correlation = 6.010336002418e-01
   85   -2036.1773469914      4.76e-07   Normal BFGS step
 Nonlocal correlation = 6.010336005256e-01
   86   -2036.1773469914      1.97e-07   Normal BFGS step
 Nonlocal correlation = 6.010336005102e-01
   87   -2036.1773469914      2.73e-07   Normal BFGS step
 Nonlocal correlation = 6.010336008142e-01
   88   -2036.1773469914      1.31e-07   Normal BFGS step
 Nonlocal correlation = 6.010336007111e-01
   89   -2036.1773469914      2.15e-07   Normal BFGS step
 Nonlocal correlation = 6.010336001912e-01
   90   -2036.1773469914      4.74e-08   Normal BFGS step
 Nonlocal correlation = 6.010336007240e-01
   91   -2036.1773469914      6.87e-08   Normal BFGS step
 Nonlocal correlation = 6.010336005637e-01
   92   -2036.1773469914      1.97e-08   Normal BFGS step
  /scratch/qcdevops/jenkins/workspace/build_qchem_linux_distrib/tags/qc511/qchem/libgscf/libgscf/opt/gdm.C::WARNING energy changes are now smaller than effective accuracy.
  /scratch/qcdevops/jenkins/workspace/build_qchem_linux_distrib/tags/qc511/qchem/libgscf/libgscf/opt/gdm.C::        calculation will continue, but THRESH should be increased
  /scratch/qcdevops/jenkins/workspace/build_qchem_linux_distrib/tags/qc511/qchem/libgscf/libgscf/opt/gdm.C::        or SCF_CONVERGENCE decreased. 
  /scratch/qcdevops/jenkins/workspace/build_qchem_linux_distrib/tags/qc511/qchem/libgscf/libgscf/opt/gdm.C::        effective_thresh = 4.88e-09
 Nonlocal correlation = 6.010336005992e-01
   93   -2036.1773469914      2.74e-08   Normal BFGS step
 Nonlocal correlation = 6.010336006543e-01
   94   -2036.1773469914      1.56e-08   Normal BFGS step
 Nonlocal correlation = 6.010336006652e-01
   95   -2036.1773469914      2.81e-08   Normal BFGS step
 Nonlocal correlation = 6.010336006170e-01
   96   -2036.1773469914      1.55e-08   Normal BFGS step
  /scratch/qcdevops/jenkins/workspace/build_qchem_linux_distrib/tags/qc511/qchem/libgscf/libgscf/opt/gdm.C::WARNING energy changes are now smaller than effective accuracy.
  /scratch/qcdevops/jenkins/workspace/build_qchem_linux_distrib/tags/qc511/qchem/libgscf/libgscf/opt/gdm.C::        calculation will continue, but THRESH should be increased
  /scratch/qcdevops/jenkins/workspace/build_qchem_linux_distrib/tags/qc511/qchem/libgscf/libgscf/opt/gdm.C::        or SCF_CONVERGENCE decreased. 
  /scratch/qcdevops/jenkins/workspace/build_qchem_linux_distrib/tags/qc511/qchem/libgscf/libgscf/opt/gdm.C::        effective_thresh = 8.17e-09
 Nonlocal correlation = 6.010336005530e-01
   97   -2036.1773469914      5.33e-08   Normal BFGS step
  /scratch/qcdevops/jenkins/workspace/build_qchem_linux_distrib/tags/qc511/qchem/libgscf/libgscf/opt/gdm.C::WARNING energy changes are now smaller than effective accuracy.
  /scratch/qcdevops/jenkins/workspace/build_qchem_linux_distrib/tags/qc511/qchem/libgscf/libgscf/opt/gdm.C::        calculation will continue, but THRESH should be increased
  /scratch/qcdevops/jenkins/workspace/build_qchem_linux_distrib/tags/qc511/qchem/libgscf/libgscf/opt/gdm.C::        or SCF_CONVERGENCE decreased. 
  /scratch/qcdevops/jenkins/workspace/build_qchem_linux_distrib/tags/qc511/qchem/libgscf/libgscf/opt/gdm.C::        effective_thresh = 8.17e-09
 Nonlocal correlation = 6.010336006150e-01
   98   -2036.1773469914      1.94e-08   Normal BFGS step
 Nonlocal correlation = 6.010336007232e-01
   99   -2036.1773469914      3.01e-08   Normal BFGS step
  /scratch/qcdevops/jenkins/workspace/build_qchem_linux_distrib/tags/qc511/qchem/libgscf/libgscf/opt/gdm.C::WARNING energy changes are now smaller than effective accuracy.
  /scratch/qcdevops/jenkins/workspace/build_qchem_linux_distrib/tags/qc511/qchem/libgscf/libgscf/opt/gdm.C::        calculation will continue, but THRESH should be increased
  /scratch/qcdevops/jenkins/workspace/build_qchem_linux_distrib/tags/qc511/qchem/libgscf/libgscf/opt/gdm.C::        or SCF_CONVERGENCE decreased. 
  /scratch/qcdevops/jenkins/workspace/build_qchem_linux_distrib/tags/qc511/qchem/libgscf/libgscf/opt/gdm.C::        effective_thresh = 8.17e-09
 Nonlocal correlation = 6.010336005932e-01
  100   -2036.1773469914      3.11e-08   Normal BFGS step
  /scratch/qcdevops/jenkins/workspace/build_qchem_linux_distrib/tags/qc511/qchem/libgscf/libgscf/opt/gdm.C::WARNING energy changes are now smaller than effective accuracy.
  /scratch/qcdevops/jenkins/workspace/build_qchem_linux_distrib/tags/qc511/qchem/libgscf/libgscf/opt/gdm.C::        calculation will continue, but THRESH should be increased
  /scratch/qcdevops/jenkins/workspace/build_qchem_linux_distrib/tags/qc511/qchem/libgscf/libgscf/opt/gdm.C::        or SCF_CONVERGENCE decreased. 
  /scratch/qcdevops/jenkins/workspace/build_qchem_linux_distrib/tags/qc511/qchem/libgscf/libgscf/opt/gdm.C::        effective_thresh = 8.17e-09
 Nonlocal correlation = 6.010336006046e-01
  101   -2036.1773469914      2.74e-08   Normal BFGS step
 Nonlocal correlation = 6.010336006735e-01
  102   -2036.1773469914      3.19e-08   Normal BFGS step
  /scratch/qcdevops/jenkins/workspace/build_qchem_linux_distrib/tags/qc511/qchem/libgscf/libgscf/opt/gdm.C::WARNING energy changes are now smaller than effective accuracy.
  /scratch/qcdevops/jenkins/workspace/build_qchem_linux_distrib/tags/qc511/qchem/libgscf/libgscf/opt/gdm.C::        calculation will continue, but THRESH should be increased
  /scratch/qcdevops/jenkins/workspace/build_qchem_linux_distrib/tags/qc511/qchem/libgscf/libgscf/opt/gdm.C::        or SCF_CONVERGENCE decreased. 
  /scratch/qcdevops/jenkins/workspace/build_qchem_linux_distrib/tags/qc511/qchem/libgscf/libgscf/opt/gdm.C::        effective_thresh = 8.17e-09
 Nonlocal correlation = 6.010336007084e-01
  103   -2036.1773469914      1.39e-08   Normal BFGS step
 Nonlocal correlation = 6.010336006046e-01
  104   -2036.1773469914      1.25e-08   Normal BFGS step
  /scratch/qcdevops/jenkins/workspace/build_qchem_linux_distrib/tags/qc511/qchem/libgscf/libgscf/opt/gdm.C::WARNING energy changes are now smaller than effective accuracy.
  /scratch/qcdevops/jenkins/workspace/build_qchem_linux_distrib/tags/qc511/qchem/libgscf/libgscf/opt/gdm.C::        calculation will continue, but THRESH should be increased
  /scratch/qcdevops/jenkins/workspace/build_qchem_linux_distrib/tags/qc511/qchem/libgscf/libgscf/opt/gdm.C::        or SCF_CONVERGENCE decreased. 
  /scratch/qcdevops/jenkins/workspace/build_qchem_linux_distrib/tags/qc511/qchem/libgscf/libgscf/opt/gdm.C::        effective_thresh = 8.17e-09
 Nonlocal correlation = 6.010336006314e-01
  105   -2036.1773469914      1.56e-08   Normal BFGS step
 Nonlocal correlation = 6.010336006816e-01
  106   -2036.1773469914      9.59e-09  Convergence criterion met
 ---------------------------------------
 SCF time:   CPU 75024.58s  wall 6276.00s 
<S^2> =          3.819956379
 SCF   energy in the final basis set =    -2036.1773469914
 Total energy in the final basis set =    -2036.1773469914
 
 --------------------------------------------------------------
 
                    Orbital Energies (a.u.)
 --------------------------------------------------------------
 
 Alpha MOs
 -- Occupied --
******* -30.452 -26.199 -26.177 -26.176 -19.452 -19.447 -10.517
-10.513 -10.483 -10.463 -10.459 -10.454 -10.450 -10.443 -10.425
-10.422 -10.417 -10.403 -10.376 -10.375 -10.375 -10.373  -3.898
 -2.667  -2.618  -2.614  -1.317  -1.122  -1.063  -1.059  -0.998
 -0.994  -0.968  -0.925  -0.910  -0.900  -0.864  -0.858  -0.857
 -0.806  -0.784  -0.768  -0.750  -0.733  -0.727  -0.686  -0.676
 -0.669  -0.666  -0.657  -0.656  -0.645  -0.643  -0.639  -0.631
 -0.629  -0.627  -0.623  -0.610  -0.606  -0.599  -0.597  -0.595
 -0.592  -0.588  -0.584  -0.566  -0.561  -0.553  -0.546  -0.541
 -0.540  -0.532  -0.530  -0.526  -0.510  -0.498  -0.494  -0.484
 -0.455
 -- Virtual --
 -0.441  -0.426  -0.408  -0.300  -0.261  -0.197  -0.182  -0.177
 -0.167  -0.157  -0.153  -0.146  -0.141  -0.135  -0.126  -0.118
 -0.116  -0.111  -0.104  -0.102  -0.086  -0.084  -0.080  -0.074
 -0.069  -0.061  -0.053  -0.044  -0.038  -0.035  -0.032  -0.023
 -0.022  -0.021  -0.018  -0.003   0.009   0.014   0.026   0.030
  0.035   0.046   0.058   0.078   0.097   0.098   0.107   0.134
  0.143   0.164   0.180   0.186   0.212   0.222   0.231   0.238
  0.247   0.250   0.265   0.268   0.273   0.278   0.290   0.292
  0.296   0.309   0.319   0.343   0.366   0.374   0.378   0.385
  0.386   0.392   0.400   0.404   0.414   0.419   0.422   0.425
  0.436   0.439   0.446   0.451   0.456   0.466   0.467   0.475
  0.476   0.478   0.479   0.484   0.490   0.493   0.495   0.501
  0.505   0.509   0.517   0.520   0.525   0.529   0.534   0.537
  0.550   0.556   0.564   0.567   0.570   0.573   0.579   0.584
  0.594   0.597   0.607   0.618   0.624   0.639   0.647   0.653
  0.671   0.683   0.718   0.726   0.747   0.755   0.765   0.774
  0.823   0.827   0.850   0.856   0.883   0.889   0.917   0.932
  0.944   0.980   0.991   1.004   1.022   1.046   1.073   1.107
  1.126   1.136   1.194   1.291   1.379   1.438
 
 Beta MOs
 -- Occupied --
******* -30.378 -26.131 -26.118 -26.116 -19.472 -19.450 -10.519
-10.514 -10.485 -10.465 -10.461 -10.455 -10.450 -10.448 -10.425
-10.422 -10.417 -10.403 -10.377 -10.375 -10.375 -10.373  -3.722
 -2.461  -2.447  -2.445  -1.322  -1.181  -1.069  -1.066  -1.006
 -0.996  -0.970  -0.929  -0.916  -0.904  -0.865  -0.860  -0.858
 -0.812  -0.786  -0.770  -0.754  -0.736  -0.733  -0.690  -0.678
 -0.670  -0.664  -0.648  -0.644  -0.638  -0.632  -0.625  -0.616
 -0.614  -0.610  -0.603  -0.600  -0.593  -0.592  -0.587  -0.568
 -0.565  -0.561  -0.558  -0.554  -0.545  -0.543  -0.532  -0.528
 -0.519  -0.515  -0.499  -0.495  -0.485  -0.474  -0.459
 -- Virtual --
 -0.449  -0.433  -0.428  -0.386  -0.361  -0.322  -0.276  -0.212
 -0.184  -0.181  -0.166  -0.164  -0.154  -0.146  -0.139  -0.137
 -0.125  -0.118  -0.114  -0.111  -0.106  -0.104  -0.087  -0.086
 -0.081  -0.076  -0.070  -0.062  -0.054  -0.046  -0.040  -0.036
 -0.034  -0.025  -0.025  -0.022  -0.021  -0.005   0.008   0.012
  0.023   0.027   0.032   0.045   0.056   0.075   0.094   0.094
  0.103   0.131   0.139   0.160   0.177   0.182   0.207   0.218
  0.229   0.233   0.245   0.247   0.263   0.266   0.270   0.274
  0.279   0.288   0.292   0.304   0.315   0.339   0.364   0.372
  0.374   0.378   0.382   0.392   0.398   0.403   0.411   0.417
  0.419   0.425   0.433   0.438   0.443   0.449   0.458   0.466
  0.468   0.473   0.475   0.478   0.481   0.486   0.490   0.492
  0.497   0.500   0.503   0.510   0.517   0.520   0.523   0.530
  0.536   0.538   0.550   0.556   0.567   0.571   0.577   0.584
  0.592   0.602   0.609   0.616   0.627   0.635   0.641   0.649
  0.671   0.687   0.702   0.714   0.724   0.747   0.747   0.759
  0.768   0.779   0.833   0.841   0.848   0.869   0.888   0.891
  0.915   0.931   0.943   0.979   0.989   1.003   1.020   1.044
  1.062   1.100   1.124   1.133   1.191   1.287   1.366   1.433
 --------------------------------------------------------------
 
          Ground-State Mulliken Net Atomic Charges

     Atom                 Charge (a.u.)    Spin (a.u.)
  --------------------------------------------------------
      1 Fe                    1.238939       3.738641
      2 O                    -0.367857      -0.678518
      3 H                     0.121471       0.000209
      4 H                     0.148593      -0.008253
      5 H                     0.157703      -0.016249
      6 O                    -0.486413      -0.053695
      7 H                     0.084884       0.002575
      8 H                     0.117055      -0.000035
      9 C                    -0.210383      -0.006250
     10 C                    -0.292451       0.015196
     11 H                     0.163694       0.018916
     12 C                    -0.163161      -0.180617
     13 H                     0.128761       0.008566
     14 H                     0.161543      -0.000634
     15 H                     0.130636       0.000491
     16 C                    -0.196072       0.013532
     17 C                     0.171102      -0.134788
     18 C                     0.070442       0.005480
     19 C                    -0.136117      -0.002439
     20 H                     0.153269      -0.001790
     21 C                    -0.105588      -0.341876
     22 C                    -0.411904       0.007857
     23 H                     0.192686      -0.013792
     24 C                    -0.071986      -0.131574
     25 H                     0.160278      -0.007811
     26 C                     0.093624      -0.063302
     27 C                    -0.159659      -0.001894
     28 H                     0.143954      -0.000050
     29 H                     0.154581      -0.000494
     30 H                     0.193537       0.020165
     31 C                    -0.055734       0.014704
     32 C                    -0.026403      -0.174055
     33 H                     0.157595      -0.001337
     34 C                    -0.226669      -0.013942
     35 H                     0.131465      -0.000089
     36 H                     0.109704       0.000100
     37 H                     0.164080      -0.000935
     38 H                     0.156190       0.001813
     39 H                     0.140505       0.000260
     40 C                    -0.283897       0.008245
     41 H                     0.187505      -0.009092
     42 H                     0.174144      -0.001168
     43 H                     0.186352      -0.012071
  --------------------------------------------------------
  Sum of atomic charges =     2.000000
  Sum of spin   charges =     2.000000

 -----------------------------------------------------------------
                    Cartesian Multipole Moments
 -----------------------------------------------------------------
    Charge (ESU x 10^10)
                 9.6064
    Dipole Moment (Debye)
         X      -6.4962      Y       9.8659      Z      -2.0940
       Tot      11.9967
    Quadrupole Moments (Debye-Ang)
        XX     -35.5314     XY       8.7455     YY     -28.1781
        XZ      -5.9163     YZ       1.4399     ZZ    -104.0852
    Octopole Moments (Debye-Ang^2)
       XXX    -253.4465    XXY     -51.4335    XYY     -39.9204
       YYY     394.1423    XXZ      38.3863    XYZ     -19.5659
       YYZ       4.2539    XZZ      -6.6304    YZZ      25.3384
       ZZZ      -6.7387
    Hexadecapole Moments (Debye-Ang^3)
      XXXX   -3095.8653   XXXY     311.3541   XXYY   -1056.4395
      XYYY     -66.5157   YYYY    -979.3670   XXXZ    -350.6826
      XXYZ      -3.5621   XYYZ      47.9232   YYYZ      87.2242
      XXZZ    -931.1176   XYZZ       5.0818   YYZZ    -523.0709
      XZZZ      -2.9352   YZZZ      35.0427   ZZZZ   -1024.9409
 -----------------------------------------------------------------
 Calculating analytic gradient of the SCF energy
 Gradient of SCF Energy
            1           2           3           4           5           6
    1   0.0033029  -0.0096080   0.0000295  -0.0025579   0.0006192   0.0020921
    2   0.0389616  -0.0534387   0.0005793   0.0020396  -0.0010879   0.0078944
    3  -0.0176710  -0.0000166  -0.0005416   0.0023476   0.0002275   0.0102538
            7           8           9          10          11          12
    1   0.0017002  -0.0003798   0.0030502   0.0002474   0.0009046  -0.0204963
    2   0.0011226   0.0006117  -0.0028544  -0.0002772  -0.0001744  -0.0163736
    3   0.0019087  -0.0006090  -0.0004040  -0.0051187  -0.0003327   0.0231707
           13          14          15          16          17          18
    1   0.0004539   0.0005094   0.0001717   0.0048738   0.0209051  -0.0139427
    2  -0.0002036  -0.0006985   0.0005983   0.0042690   0.0179499  -0.0012589
    3  -0.0013654   0.0016179  -0.0010368  -0.0001878  -0.0227718  -0.0142030
           19          20          21          22          23          24
    1  -0.0022282  -0.0020595   0.0129538  -0.0022909   0.0003264   0.0333608
    2  -0.0008364  -0.0019045  -0.0119725  -0.0022590  -0.0016129  -0.0071466
    3   0.0006651  -0.0000911  -0.0158005  -0.0014128  -0.0004879  -0.0252816
           25          26          27          28          29          30
    1   0.0004749   0.0191778  -0.0005526   0.0009922   0.0022257  -0.0005305
    2  -0.0023958   0.0088354   0.0024151  -0.0014037  -0.0004337   0.0000529
    3  -0.0005724   0.0218908  -0.0016907   0.0011078   0.0006134  -0.0001463
           31          32          33          34          35          36
    1  -0.0292861  -0.0274651   0.0014688   0.0016535  -0.0010371   0.0006522
    2   0.0089499   0.0146517   0.0006445   0.0022116  -0.0003667   0.0008063
    3   0.0240801   0.0231327  -0.0011438   0.0042919   0.0002185  -0.0005878
           37          38          39          40          41          42
    1   0.0001762  -0.0002927  -0.0000928   0.0020756  -0.0003380  -0.0012615
    2  -0.0019233  -0.0008257   0.0007394  -0.0035129   0.0003425  -0.0001312
    3   0.0008607  -0.0007534  -0.0008172  -0.0022762  -0.0011155   0.0000030
           43
    1   0.0000212
    2  -0.0005789
    3   0.0000466
 Max gradient component =       5.344E-02
 RMS gradient           =       1.057E-02
 Gradient time:  CPU 1708.24 s  wall 247.80 s
 Geometry Optimization Parameters
   NAtoms,    NIC,     NZ,  NCons,   NDum,   NFix, NCnnct, MaxDiis
       43     329       0       0       0       0       0       0


** GEOMETRY OPTIMIZATION IN DELOCALIZED INTERNAL COORDINATES **
   Searching for a Minimum

   Optimization Cycle:   1

                       Coordinates (Angstroms)
     ATOM                X               Y               Z
      1  Fe       -0.2651435580    3.6600742574    0.2214037576
      2  O        -0.3385819123    2.0261512839    1.0759951962
      3  H         1.7735863384   -0.0134628191    2.6482247567
      4  H         2.1675416354    2.0464969954   -1.9712872389
      5  H         4.0938193946    0.8262953875   -0.7199835785
      6  O        -0.9436481768    0.7375987245   -0.3092114045
      7  H         0.4977486352    1.4904030019   -1.6911883508
      8  H         3.8513598791   -0.4663607298    1.4887211405
      9  C         1.5782609273   -1.0814087159    2.4519676666
     10  C         1.5105432174    1.1571645385   -1.9401000636
     11  H        -5.3231609721    0.0977188364    1.6436207604
     12  C         2.0664345766    0.1573995859   -0.9594901888
     13  H        -3.1110309174    0.1568027770    0.4854059707
     14  H         2.1719177601   -1.6759028746    3.1684390688
     15  H         0.5175526450   -1.2819312252    2.6685233707
     16  C         3.5542772980   -0.0537805004   -1.1299086662
     17  C         1.3425532958   -0.5052579930   -0.0155543995
     18  C        -0.1394622723   -0.4554572963    0.1065663875
     19  C         3.5285068479   -1.3814321849    0.9552401171
     20  H        -0.5375004239   -0.8639919828    1.0382771741
     21  C        -5.5494211936   -0.8130632400    1.0800679841
     22  C         1.9869945043   -1.4603533332    1.0104224228
     23  H         1.5190721280    0.7413964160   -2.9660966406
     24  C        -3.3550949568   -0.7662134744   -0.0517006521
     25  H         3.7848094508   -0.0510187033   -2.2121616814
     26  C        -1.1085690568   -0.5416416769   -1.0331152578
     27  C         4.0650422705   -1.3278504719   -0.4684142968
     28  H         3.9431251229   -2.2372954408    1.5171761841
     29  H         5.1671464417   -1.3536082957   -0.4744168217
     30  H        -6.5263329103   -1.2693621313    1.2530965932
     31  C        -4.6580383127   -1.3419429516    0.2113454851
     32  C        -2.4084590156   -1.2411665095   -0.9054004058
     33  H        -0.6676979463   -0.5326166841   -2.0390210056
     34  C         1.5270301684   -2.9069051550    0.7265475091
     35  H         3.7273056481   -2.2109444962   -1.0414714826
     36  H         0.4265651383   -2.9912651223    0.7445231415
     37  H         1.9255418968   -3.5956279541    1.4925366007
     38  H        -4.9311767249   -2.2555910117   -0.3271674953
     39  H         1.8719799623   -3.2514088309   -0.2630907415
     40  C        -2.5313862318   -2.4691627086   -1.7607601222
     41  H        -2.3861677422   -2.2200303219   -2.8284449700
     42  H        -3.5078037156   -2.9612100753   -1.6637563265
     43  H        -1.7518999034   -3.2129829504   -1.5075075769
   Point Group: c1    Number of degrees of freedom:   123


   Energy is  -2036.177346991


 Attempting to Generate Delocalized Internal Coordinates

123 Hessian modes will be used to form the next step
  Hessian Eigenvalues:
     0.002000    0.003154    0.003327    0.004666    0.004997    0.008293
     0.008538    0.008970    0.010783    0.011378    0.011603    0.012015
     0.015143    0.015923    0.015984    0.020594    0.021824    0.022387
     0.022967    0.027654    0.028705    0.028705    0.030380    0.030484
     0.032195    0.043628    0.047571    0.047939    0.049722    0.051937
     0.052655    0.053520    0.054364    0.055351    0.056538    0.059967
     0.068828    0.069444    0.070257    0.073436    0.075334    0.078012
     0.078652    0.083857    0.084169    0.091252    0.096890    0.098526
     0.098605    0.105241    0.110277    0.121053    0.133855    0.159993
     0.160000    0.160000    0.160000    0.160000    0.160000    0.160000
     0.160000    0.160000    0.160000    0.160000    0.160000    0.160000
     0.160000    0.160000    0.160000    0.160699    0.188502    0.220000
     0.220002    0.228449    0.229628    0.245844    0.249575    0.249957
     0.249979    0.249998    0.250000    0.258817    0.270651    0.278386
     0.280332    0.280661    0.281470    0.288436    0.295097    0.305212
     0.316846    0.322127    0.325249    0.328838    0.329122    0.329413
     0.329694    0.330128    0.330335    0.330721    0.331765    0.331908
     0.332256    0.332610    0.333244    0.333304    0.333501    0.334157
     0.335714    0.336837    0.338692    0.339395    0.341904    0.342242
     0.342550    0.342781    0.343785    0.345325    0.345804    0.384345
     0.506872    0.528805    0.545162

 Minimum Search - Taking Simple RFO Step
 Searching for Lamda that Minimizes Along All modes
 Value Taken    Lamda =  -0.02148733
 Calculated Step too Large.  Step scaled by  0.858970
 Step Taken.  Stepsize is  0.300000

                             Maximum     Tolerance    Cnvgd?
         Gradient           0.026118      0.000300      NO
         Displacement       0.118728      0.001200      NO
         Energy change     *********      0.000001      NO


 New Cartesian Coordinates Obtained by Inverse Iteration

 Displacement from previous Coordinates is:  0.981618
 ----------------------------------------------------------------
             Standard Nuclear Orientation (Angstroms)
    I     Atom           X                Y                Z
 ----------------------------------------------------------------
    1      Fe     -0.3608853470     3.6904346129     0.2802398642
    2      O      -0.3103866910     2.1395365030     1.1265516360
    3      H       1.7278620898     0.0232421392     2.6366371507
    4      H       2.2856562001     2.0222748863    -2.0330200190
    5      H       4.1230336700     0.7771731718    -0.7314430789
    6      O      -0.9437495685     0.7772635174    -0.3144377203
    7      H       0.5770147000     1.5476277270    -1.7569631075
    8      H       3.8362567189    -0.4907759905     1.4941139750
    9      C       1.5150168735    -1.0403129666     2.4382185327
   10      C       1.5812484663     1.1710413881    -1.9819872365
   11      H      -5.2840979770     0.0043636377     1.7249570450
   12      C       2.0941197642     0.1656509705    -0.9875757439
   13      H      -3.1135911282     0.1260020056     0.5416735797
   14      H       2.0867353699    -1.6426922839     3.1625480878
   15      H       0.4481517377    -1.2226942217     2.6433896691
   16      C       3.5678064562    -0.0947243998    -1.1396023173
   17      C       1.3361814106    -0.4811414658    -0.0251047567
   18      C      -0.1335957455    -0.4127554070     0.0996355118
   19      C       3.4916497617    -1.3985073121     0.9619909257
   20      H      -0.5226240257    -0.8116465467     1.0373019607
   21      C      -5.4977170107    -0.9012782331     1.1480335751
   22      C       1.9466627100    -1.4400290538     1.0059033478
   23      H       1.5803697458     0.7425005251    -3.0012463225
   24      C      -3.3379786731    -0.7898670376    -0.0176809266
   25      H       3.8067252254    -0.0950818846    -2.2191667309
   26      C      -1.1125959000    -0.5066418840    -1.0553695216
   27      C       4.0380733339    -1.3755979520    -0.4589607334
   28      H       3.8774698982    -2.2599549083     1.5307629692
   29      H       5.1364402375    -1.4269903982    -0.4582584042
   30      H      -6.4586454292    -1.3845110706     1.3336257042
   31      C      -4.6027175646    -1.4038121397     0.2382188279
   32      C      -2.3828601607    -1.2350356295    -0.9146781877
   33      H      -0.6823379797    -0.4920545541    -2.0635425863
   34      C       1.4516311810    -2.8777087392     0.7105060336
   35      H       3.6863660385    -2.2551805957    -1.0277657612
   36      H       0.3487343000    -2.9416178567     0.7176177424
   37      H       1.8264204715    -3.5668542506     1.4845960655
   38      H      -4.8602059885    -2.3124446140    -0.3134524817
   39      H       1.8028385731    -3.2379608248    -0.2706195668
   40      C      -2.4940688320    -2.4504742718    -1.7778472066
   41      H      -2.3762934708    -2.1867044392    -2.8439229869
   42      H      -3.4518202161    -2.9718012628    -1.6657478109
   43      H      -1.6881539852    -3.1730049473    -1.5492770769
 ----------------------------------------------------------------
 Molecular Point Group                 C1    NOp =  1
 Largest Abelian Subgroup              C1    NOp =  1
 Nuclear Repulsion Energy =  1763.6095083868 hartrees
 There are       81 alpha and       79 beta electrons
 Applying Cartesian multipole field
    Component          Value
    ---------          -----
     (2,0,0)        1.00000E-12
     (0,2,0)        2.00000E-11
     (0,0,2)       -3.00000E-11
 Nucleus-field energy     =     0.0000000270 hartrees
 Requested basis set is VDZ
 There are 147 shells and 231 basis functions
 A cutoff of  1.0D-12 yielded   8922 shell pairs
 There are     22334 function pairs (     22675 Cartesian)
 Smallest overlap matrix eigenvalue = 8.24E-04
 Guess MOs from SCF MO coefficient file

 -----------------------------------------------------------------------
  General SCF calculation program by
  Eric Jon Sundstrom, Paul Horn, Yuezhi Mao, Dmitri Zuev, Alec White,
  David Stuck, Shaama M.S., Shane Yost, Joonho Lee, David Small,
  Daniel Levine, Susi Lehtola, Hugh Burton, Evgeny Epifanovsky
 -----------------------------------------------------------------------
 Exchange:  B97M-V      Correlation:  B97M-V
 Using SG-2 standard quadrature grid
 Nonlocal Correlation:  rVV10 with C = 0.0100 and b = 6.00 and scale = 1.00000
 Grid used for NLC:  SG-1 standard quadrature
 using 12 threads for integral computing
 -------------------------------------------------------
 OpenMP Integral computing Module                
 Release: version 1.0, May 2013, Q-Chem Inc. Pittsburgh 
 -------------------------------------------------------
 -------------------------------------------------------
 OpenMP BLAS3 based DFT computing Module                
 Release: version 1.0, May 2013, Q-Chem Inc. Pittsburgh 
 -------------------------------------------------------
 -------------------------------------------------------
 OpenMP BLAS3 based DFT computing Module                
 Release: version 1.0, May 2013, Q-Chem Inc. Pittsburgh 
 -------------------------------------------------------
 -------------------------------------------------------
 OpenMP BLAS3 based DFT computing Module                
 Release: version 1.0, May 2013, Q-Chem Inc. Pittsburgh 
 -------------------------------------------------------
 Nonlocal correlation = 0.601259014060
 A unrestricted SCF calculation will be
 performed using DIIS, GDM
 SCF converges when RMS gradient is below 1.0e-08
 ---------------------------------------
  Cycle       Energy         DIIS error
 ---------------------------------------
 Nonlocal correlation = 6.013742118384e-01
    1   -2036.1812539024      3.73e-04  
    2   -2036.1836878820      4.20e-04  Done DIIS. Switching to GDM
 ---------------------------------------
  Cycle       Energy        RMS Gradient
 ---------------------------------------
 Nonlocal correlation = 6.008149437385e-01
    1   -2036.1836878820      1.27e-01   Normal BFGS step
 Nonlocal correlation = 6.012807763347e-01
    2   -2036.0200929754      5.58e-01  Line search: overstep
 Nonlocal correlation = 6.011779824628e-01
    3   -2036.1890632719      4.90e-02   Normal BFGS step
 Nonlocal correlation = 6.012541486425e-01
    4   -2036.1809997512      9.81e-02  Line search: overstep
 Nonlocal correlation = 6.012552419715e-01
    5   -2036.1898989917      1.23e-02   Normal BFGS step
 Nonlocal correlation = 6.012762778819e-01
    6   -2036.1901055446      9.16e-03   Normal BFGS step
 Nonlocal correlation = 6.012480501314e-01
    7   -2036.1901917635      9.15e-03   Normal BFGS step
 Nonlocal correlation = 6.012468747577e-01
    8   -2036.1902863519      1.92e-03   Normal BFGS step
 Nonlocal correlation = 6.012588747471e-01
    9   -2036.1903017047      2.17e-03   Normal BFGS step
 Nonlocal correlation = 6.012512616363e-01
   10   -2036.1903138914      1.53e-03   Normal BFGS step
 Nonlocal correlation = 6.012452099489e-01
   11   -2036.1903213100      1.59e-03   Normal BFGS step
 Nonlocal correlation = 6.012459713187e-01
   12   -2036.1903294559      8.18e-04   Normal BFGS step
 Nonlocal correlation = 6.012450617856e-01
   13   -2036.1903337605      6.01e-04   Normal BFGS step
 Nonlocal correlation = 6.012453250436e-01
   14   -2036.1903359340      6.13e-04   Normal BFGS step
 Nonlocal correlation = 6.012432834391e-01
   15   -2036.1903378481      6.09e-04   Normal BFGS step
 Nonlocal correlation = 6.012443239552e-01
   16   -2036.1903388136      6.10e-04   Normal BFGS step
 Nonlocal correlation = 6.012466971229e-01
   17   -2036.1903399994      6.09e-04   Normal BFGS step
 Nonlocal correlation = 6.012464746121e-01
   18   -2036.1903422176      6.06e-04   Normal BFGS step
 Nonlocal correlation = 6.012448267926e-01
   19   -2036.1903448697      5.98e-04   Normal BFGS step
 Nonlocal correlation = 6.012433168373e-01
   20   -2036.1903498275      7.07e-04   Normal BFGS step
 Nonlocal correlation = 6.012414463835e-01
   21   -2036.1903590873      9.76e-04   Normal BFGS step
 Nonlocal correlation = 6.012338646846e-01
   22   -2036.1903672065      1.97e-03   Normal BFGS step
 Nonlocal correlation = 6.012369994581e-01
   23   -2036.1903680294      3.86e-03   Normal BFGS step
 Nonlocal correlation = 6.012472765923e-01
   24   -2036.1903880514      3.18e-03   Normal BFGS step
 Nonlocal correlation = 6.012417968529e-01
   25   -2036.1903850885      4.90e-03  Line search: overstep
 Nonlocal correlation = 6.012443627019e-01
   26   -2036.1903998522      9.33e-04   Normal BFGS step
 Nonlocal correlation = 6.012476280072e-01
   27   -2036.1904085478      9.71e-04   Normal BFGS step
 Nonlocal correlation = 6.012428096001e-01
   28   -2036.1904153092      9.20e-04   Normal BFGS step
 Nonlocal correlation = 6.012424589789e-01
   29   -2036.1904201240      5.56e-04   Normal BFGS step
 Nonlocal correlation = 6.012467434240e-01
   30   -2036.1904224492      3.85e-04   Normal BFGS step
 Nonlocal correlation = 6.012440056111e-01
   31   -2036.1904238372      5.48e-04   Normal BFGS step
 Nonlocal correlation = 6.012437904325e-01
   32   -2036.1904244306      2.81e-04   Normal BFGS step
 Nonlocal correlation = 6.012449625820e-01
   33   -2036.1904247174      1.86e-04   Normal BFGS step
 Nonlocal correlation = 6.012448261729e-01
   34   -2036.1904248400      1.41e-04   Normal BFGS step
 Nonlocal correlation = 6.012445779561e-01
   35   -2036.1904248571      1.73e-04   Normal BFGS step
 Nonlocal correlation = 6.012448000745e-01
   36   -2036.1904249064      6.30e-05   Normal BFGS step
 Nonlocal correlation = 6.012446537380e-01
   37   -2036.1904249152      5.50e-05   Normal BFGS step
 Nonlocal correlation = 6.012447968912e-01
   38   -2036.1904249236      3.92e-05   Normal BFGS step
 Nonlocal correlation = 6.012447846961e-01
   39   -2036.1904249260      1.63e-05   Normal BFGS step
 Nonlocal correlation = 6.012447488158e-01
   40   -2036.1904249296      7.87e-06   Normal BFGS step
 Nonlocal correlation = 6.012447295152e-01
   41   -2036.1904249303      4.35e-06   Normal BFGS step
 Nonlocal correlation = 6.012447648860e-01
   42   -2036.1904249305      8.89e-06   Normal BFGS step
 Nonlocal correlation = 6.012447663115e-01
   43   -2036.1904249304      1.71e-05   Normal BFGS step
 Nonlocal correlation = 6.012447352190e-01
   44   -2036.1904249305      5.41e-06   Normal BFGS step
 Nonlocal correlation = 6.012447408622e-01
   45   -2036.1904249306      3.55e-06   Normal BFGS step
 Nonlocal correlation = 6.012447482330e-01
   46   -2036.1904249306      2.43e-06   Normal BFGS step
 Nonlocal correlation = 6.012447506674e-01
   47   -2036.1904249307      3.45e-06   Normal BFGS step
 Nonlocal correlation = 6.012447362691e-01
   48   -2036.1904249307      1.79e-06   Normal BFGS step
 Nonlocal correlation = 6.012447420903e-01
   49   -2036.1904249307      6.10e-07   Normal BFGS step
 Nonlocal correlation = 6.012447448733e-01
   50   -2036.1904249307      4.05e-07   Normal BFGS step
 Nonlocal correlation = 6.012447432740e-01
   51   -2036.1904249307      3.12e-07   Normal BFGS step
 Nonlocal correlation = 6.012447413221e-01
   52   -2036.1904249307      2.71e-07   Normal BFGS step
 Nonlocal correlation = 6.012447410937e-01
   53   -2036.1904249307      1.80e-07   Normal BFGS step
 Nonlocal correlation = 6.012447426049e-01
   54   -2036.1904249307      6.28e-08   Normal BFGS step
 Nonlocal correlation = 6.012447421821e-01
   55   -2036.1904249307      9.67e-08   Normal BFGS step
  /scratch/qcdevops/jenkins/workspace/build_qchem_linux_distrib/tags/qc511/qchem/libgscf/libgscf/opt/gdm.C::WARNING energy changes are now smaller than effective accuracy.
  /scratch/qcdevops/jenkins/workspace/build_qchem_linux_distrib/tags/qc511/qchem/libgscf/libgscf/opt/gdm.C::        calculation will continue, but THRESH should be increased
  /scratch/qcdevops/jenkins/workspace/build_qchem_linux_distrib/tags/qc511/qchem/libgscf/libgscf/opt/gdm.C::        or SCF_CONVERGENCE decreased. 
  /scratch/qcdevops/jenkins/workspace/build_qchem_linux_distrib/tags/qc511/qchem/libgscf/libgscf/opt/gdm.C::        effective_thresh = 9.99e-09
 Nonlocal correlation = 6.012447412914e-01
   56   -2036.1904249307      4.86e-08   Normal BFGS step
 Nonlocal correlation = 6.012447417157e-01
   57   -2036.1904249307      3.69e-08   Normal BFGS step
  /scratch/qcdevops/jenkins/workspace/build_qchem_linux_distrib/tags/qc511/qchem/libgscf/libgscf/opt/gdm.C::WARNING energy changes are now smaller than effective accuracy.
  /scratch/qcdevops/jenkins/workspace/build_qchem_linux_distrib/tags/qc511/qchem/libgscf/libgscf/opt/gdm.C::        calculation will continue, but THRESH should be increased
  /scratch/qcdevops/jenkins/workspace/build_qchem_linux_distrib/tags/qc511/qchem/libgscf/libgscf/opt/gdm.C::        or SCF_CONVERGENCE decreased. 
  /scratch/qcdevops/jenkins/workspace/build_qchem_linux_distrib/tags/qc511/qchem/libgscf/libgscf/opt/gdm.C::        effective_thresh = 9.99e-09
 Nonlocal correlation = 6.012447420866e-01
   58   -2036.1904249307      3.21e-08   Normal BFGS step
  /scratch/qcdevops/jenkins/workspace/build_qchem_linux_distrib/tags/qc511/qchem/libgscf/libgscf/opt/gdm.C::WARNING energy changes are now smaller than effective accuracy.
  /scratch/qcdevops/jenkins/workspace/build_qchem_linux_distrib/tags/qc511/qchem/libgscf/libgscf/opt/gdm.C::        calculation will continue, but THRESH should be increased
  /scratch/qcdevops/jenkins/workspace/build_qchem_linux_distrib/tags/qc511/qchem/libgscf/libgscf/opt/gdm.C::        or SCF_CONVERGENCE decreased. 
  /scratch/qcdevops/jenkins/workspace/build_qchem_linux_distrib/tags/qc511/qchem/libgscf/libgscf/opt/gdm.C::        effective_thresh = 9.99e-09
 Nonlocal correlation = 6.012447418946e-01
   59   -2036.1904249307      3.50e-08   Normal BFGS step
  /scratch/qcdevops/jenkins/workspace/build_qchem_linux_distrib/tags/qc511/qchem/libgscf/libgscf/opt/gdm.C::WARNING energy changes are now smaller than effective accuracy.
  /scratch/qcdevops/jenkins/workspace/build_qchem_linux_distrib/tags/qc511/qchem/libgscf/libgscf/opt/gdm.C::        calculation will continue, but THRESH should be increased
  /scratch/qcdevops/jenkins/workspace/build_qchem_linux_distrib/tags/qc511/qchem/libgscf/libgscf/opt/gdm.C::        or SCF_CONVERGENCE decreased. 
  /scratch/qcdevops/jenkins/workspace/build_qchem_linux_distrib/tags/qc511/qchem/libgscf/libgscf/opt/gdm.C::        effective_thresh = 9.99e-09
 Nonlocal correlation = 6.012447417153e-01
   60   -2036.1904249307      2.91e-08   Normal BFGS step
 Nonlocal correlation = 6.012447417433e-01
   61   -2036.1904249307      1.85e-08   Normal BFGS step
 Nonlocal correlation = 6.012447418061e-01
   62   -2036.1904249307      2.92e-08   Normal BFGS step
  /scratch/qcdevops/jenkins/workspace/build_qchem_linux_distrib/tags/qc511/qchem/libgscf/libgscf/opt/gdm.C::WARNING energy changes are now smaller than effective accuracy.
  /scratch/qcdevops/jenkins/workspace/build_qchem_linux_distrib/tags/qc511/qchem/libgscf/libgscf/opt/gdm.C::        calculation will continue, but THRESH should be increased
  /scratch/qcdevops/jenkins/workspace/build_qchem_linux_distrib/tags/qc511/qchem/libgscf/libgscf/opt/gdm.C::        or SCF_CONVERGENCE decreased. 
  /scratch/qcdevops/jenkins/workspace/build_qchem_linux_distrib/tags/qc511/qchem/libgscf/libgscf/opt/gdm.C::        effective_thresh = 9.99e-09
 Nonlocal correlation = 6.012447417820e-01
   63   -2036.1904249307      5.08e-08   Normal BFGS step
 Nonlocal correlation = 6.012447418020e-01
   64   -2036.1904249307      7.39e-09  Convergence criterion met
 ---------------------------------------
 SCF time:   CPU 45886.54s  wall 3841.00s 
<S^2> =          3.732461925
 SCF   energy in the final basis set =    -2036.1904249307
 Total energy in the final basis set =    -2036.1904249307
 
 --------------------------------------------------------------
 
                    Orbital Energies (a.u.)
 --------------------------------------------------------------
 
 Alpha MOs
 -- Occupied --
******* -30.446 -26.193 -26.172 -26.170 -19.456 -19.445 -10.517
-10.513 -10.484 -10.466 -10.459 -10.455 -10.450 -10.445 -10.427
-10.421 -10.417 -10.403 -10.378 -10.376 -10.376 -10.374  -3.891
 -2.661  -2.611  -2.607  -1.309  -1.134  -1.063  -1.059  -0.998
 -0.995  -0.968  -0.923  -0.908  -0.900  -0.864  -0.860  -0.856
 -0.806  -0.783  -0.769  -0.751  -0.731  -0.726  -0.685  -0.675
 -0.669  -0.667  -0.657  -0.655  -0.644  -0.642  -0.638  -0.630
 -0.628  -0.622  -0.620  -0.611  -0.605  -0.599  -0.598  -0.592
 -0.589  -0.586  -0.583  -0.566  -0.564  -0.554  -0.544  -0.542
 -0.539  -0.533  -0.530  -0.527  -0.512  -0.499  -0.496  -0.485
 -0.451
 -- Virtual --
 -0.442  -0.428  -0.405  -0.304  -0.263  -0.201  -0.183  -0.178
 -0.167  -0.159  -0.153  -0.146  -0.140  -0.135  -0.125  -0.118
 -0.116  -0.111  -0.104  -0.102  -0.087  -0.085  -0.080  -0.074
 -0.068  -0.061  -0.052  -0.044  -0.038  -0.036  -0.031  -0.024
 -0.022  -0.020  -0.017  -0.003   0.009   0.012   0.028   0.031
  0.037   0.045   0.057   0.076   0.096   0.097   0.104   0.133
  0.141   0.160   0.177   0.189   0.212   0.220   0.230   0.238
  0.246   0.251   0.265   0.266   0.270   0.278   0.290   0.293
  0.294   0.307   0.318   0.340   0.365   0.373   0.376   0.380
  0.385   0.388   0.399   0.403   0.414   0.417   0.420   0.423
  0.434   0.435   0.445   0.451   0.454   0.462   0.466   0.475
  0.476   0.478   0.479   0.484   0.490   0.493   0.494   0.501
  0.506   0.510   0.517   0.522   0.523   0.530   0.534   0.537
  0.550   0.556   0.565   0.567   0.574   0.575   0.581   0.585
  0.591   0.594   0.609   0.616   0.620   0.636   0.646   0.652
  0.673   0.680   0.721   0.728   0.742   0.759   0.764   0.771
  0.805   0.834   0.846   0.852   0.884   0.895   0.918   0.936
  0.944   0.976   0.988   1.002   1.020   1.041   1.051   1.096
  1.124   1.130   1.193   1.284   1.373   1.435
 
 Beta MOs
 -- Occupied --
******* -30.374 -26.127 -26.114 -26.111 -19.474 -19.448 -10.519
-10.513 -10.486 -10.468 -10.462 -10.456 -10.451 -10.450 -10.427
-10.421 -10.417 -10.403 -10.378 -10.376 -10.376 -10.374  -3.719
 -2.461  -2.444  -2.440  -1.313  -1.189  -1.068  -1.065  -1.005
 -0.997  -0.970  -0.926  -0.914  -0.904  -0.865  -0.860  -0.859
 -0.812  -0.785  -0.771  -0.754  -0.734  -0.732  -0.688  -0.678
 -0.670  -0.662  -0.647  -0.643  -0.638  -0.631  -0.624  -0.618
 -0.617  -0.611  -0.604  -0.601  -0.595  -0.592  -0.587  -0.573
 -0.568  -0.566  -0.561  -0.558  -0.547  -0.544  -0.533  -0.530
 -0.519  -0.511  -0.500  -0.497  -0.487  -0.470  -0.454
 -- Virtual --
 -0.444  -0.427  -0.421  -0.382  -0.353  -0.327  -0.279  -0.214
 -0.187  -0.180  -0.167  -0.164  -0.153  -0.146  -0.138  -0.137
 -0.124  -0.117  -0.115  -0.111  -0.106  -0.104  -0.088  -0.086
 -0.082  -0.075  -0.070  -0.062  -0.053  -0.046  -0.040  -0.037
 -0.033  -0.026  -0.023  -0.023  -0.020  -0.005   0.008   0.009
  0.025   0.028   0.034   0.044   0.055   0.073   0.092   0.094
  0.099   0.130   0.137   0.157   0.174   0.185   0.208   0.217
  0.228   0.233   0.244   0.248   0.262   0.263   0.268   0.273
  0.280   0.288   0.291   0.303   0.314   0.335   0.362   0.371
  0.375   0.379   0.385   0.395   0.396   0.402   0.411   0.418
  0.419   0.422   0.431   0.435   0.443   0.452   0.455   0.462
  0.465   0.474   0.476   0.478   0.479   0.482   0.489   0.492
  0.493   0.499   0.504   0.510   0.516   0.521   0.521   0.531
  0.534   0.536   0.549   0.555   0.565   0.568   0.574   0.580
  0.592   0.603   0.611   0.616   0.625   0.636   0.638   0.650
  0.672   0.688   0.711   0.717   0.725   0.732   0.741   0.760
  0.768   0.773   0.822   0.843   0.848   0.867   0.883   0.906
  0.915   0.935   0.944   0.976   0.985   1.002   1.023   1.035
  1.048   1.092   1.123   1.128   1.190   1.280   1.362   1.431
 --------------------------------------------------------------
 
          Ground-State Mulliken Net Atomic Charges

     Atom                 Charge (a.u.)    Spin (a.u.)
  --------------------------------------------------------
      1 Fe                    1.232883       3.644822
      2 O                    -0.371390      -0.614973
      3 H                     0.124686       0.000537
      4 H                     0.158185      -0.008446
      5 H                     0.161554      -0.016581
      6 O                    -0.487713      -0.047891
      7 H                     0.084237       0.001843
      8 H                     0.119327       0.000013
      9 C                    -0.211296      -0.006219
     10 C                    -0.286025       0.015769
     11 H                     0.165194       0.019695
     12 C                    -0.138588      -0.188221
     13 H                     0.128942       0.008510
     14 H                     0.160517      -0.000449
     15 H                     0.132405       0.000489
     16 C                    -0.206906       0.015316
     17 C                     0.159058      -0.133281
     18 C                     0.065742       0.001626
     19 C                    -0.132697      -0.002250
     20 H                     0.152383      -0.001642
     21 C                    -0.102363      -0.357106
     22 C                    -0.421420       0.008586
     23 H                     0.190248      -0.014713
     24 C                    -0.066372      -0.137354
     25 H                     0.161381      -0.007697
     26 C                     0.090397      -0.047351
     27 C                    -0.157527      -0.002036
     28 H                     0.143027      -0.000103
     29 H                     0.153980      -0.000412
     30 H                     0.193013       0.020915
     31 C                    -0.064337       0.034888
     32 C                    -0.026759      -0.159775
     33 H                     0.157701      -0.001272
     34 C                    -0.228119      -0.013487
     35 H                     0.132030      -0.000069
     36 H                     0.111097       0.000097
     37 H                     0.163240      -0.001068
     38 H                     0.157098       0.000796
     39 H                     0.141890       0.000271
     40 C                    -0.287284       0.008572
     41 H                     0.188086      -0.008279
     42 H                     0.174184      -0.001029
     43 H                     0.186310      -0.011039
  --------------------------------------------------------
  Sum of atomic charges =     2.000000
  Sum of spin   charges =     2.000000

 -----------------------------------------------------------------
                    Cartesian Multipole Moments
 -----------------------------------------------------------------
    Charge (ESU x 10^10)
                 9.6064
    Dipole Moment (Debye)
         X      -6.6669      Y       9.7072      Z      -1.9365
       Tot      11.9342
    Quadrupole Moments (Debye-Ang)
        XX     -35.9505     XY       7.2965     YY     -27.6225
        XZ      -7.2491     YZ       2.0231     ZZ    -103.1285
    Octopole Moments (Debye-Ang^2)
       XXX    -238.2387    XXY     -52.9560    XYY     -49.0498
       YYY     396.5465    XXZ      39.0543    XYZ     -18.9224
       YYZ       6.7170    XZZ      -6.9286    YZZ      24.9003
       ZZZ      -9.5771
    Hexadecapole Moments (Debye-Ang^3)
      XXXX   -3098.0353   XXXY     320.2844   XXYY   -1035.9975
      XYYY    -103.4421   YYYY    -976.1329   XXXZ    -347.2844
      XXYZ     -14.7500   XYYZ      48.6316   YYYZ      94.1221
      XXZZ    -909.8128   XYZZ       7.6530   YYZZ    -530.4684
      XZZZ      15.6111   YZZZ      24.6961   ZZZZ   -1042.5362
 -----------------------------------------------------------------
 Calculating analytic gradient of the SCF energy
 Gradient of SCF Energy
            1           2           3           4           5           6
    1   0.0015138  -0.0053607  -0.0000132  -0.0003312  -0.0001235   0.0000349
    2   0.0220740  -0.0281748   0.0002176   0.0008609  -0.0006144   0.0069304
    3  -0.0082699  -0.0023526   0.0001238   0.0010011   0.0000586   0.0103380
            7           8           9          10          11          12
    1   0.0010739  -0.0001016   0.0003860   0.0015152  -0.0002323  -0.0056242
    2   0.0004050   0.0003644  -0.0004646   0.0008349   0.0000413  -0.0048509
    3   0.0000020  -0.0001991  -0.0001347  -0.0046459   0.0004039   0.0076517
           13          14          15          16          17          18
    1  -0.0010421  -0.0001727  -0.0007327   0.0028347   0.0077464  -0.0068948
    2   0.0004257  -0.0000703   0.0006553   0.0033018   0.0048598  -0.0060817
    3   0.0005474   0.0000271  -0.0006883  -0.0012801  -0.0055911  -0.0062697
           19          20          21          22          23          24
    1  -0.0000681   0.0002445   0.0027859  -0.0021797   0.0004724   0.0091026
    2  -0.0002659  -0.0005349  -0.0021911  -0.0012186  -0.0000152  -0.0013467
    3  -0.0000546   0.0012674  -0.0032523  -0.0002358   0.0004679  -0.0088330
           25          26          27          28          29          30
    1  -0.0004945   0.0119627   0.0002798   0.0001222   0.0003286   0.0000291
    2  -0.0011341   0.0022666   0.0005073  -0.0000880  -0.0002523   0.0004099
    3  -0.0001579   0.0098222  -0.0006924   0.0001290   0.0002419   0.0000856
           31          32          33          34          35          36
    1  -0.0078754  -0.0105270  -0.0009364   0.0009537  -0.0004921  -0.0001751
    2   0.0016701   0.0020404   0.0000623   0.0008948  -0.0000554   0.0002225
    3   0.0067865   0.0063945  -0.0012115   0.0017115  -0.0000098  -0.0004783
           37          38          39          40          41          42
    1  -0.0001635   0.0011332  -0.0002238   0.0019394  -0.0002020  -0.0003973
    2  -0.0001734  -0.0004237  -0.0000968  -0.0015455   0.0003697   0.0002259
    3  -0.0001401  -0.0010952  -0.0004312  -0.0011600  -0.0000724   0.0001702
           43
    1  -0.0000952
    2  -0.0000372
    3   0.0000269
 Max gradient component =       2.817E-02
 RMS gradient           =       4.552E-03
 Gradient time:  CPU 1707.13 s  wall 248.09 s
 Geometry Optimization Parameters
   NAtoms,    NIC,     NZ,  NCons,   NDum,   NFix, NCnnct, MaxDiis
       43     329       0       0       0       0       0       0

 Cartesian Hessian Update
 Hessian Updated using BFGS Update


** GEOMETRY OPTIMIZATION IN DELOCALIZED INTERNAL COORDINATES **
   Searching for a Minimum

   Optimization Cycle:   2

                       Coordinates (Angstroms)
     ATOM                X               Y               Z
      1  Fe       -0.3608853470    3.6904346129    0.2802398642
      2  O        -0.3103866910    2.1395365030    1.1265516360
      3  H         1.7278620898    0.0232421392    2.6366371507
      4  H         2.2856562001    2.0222748863   -2.0330200190
      5  H         4.1230336700    0.7771731718   -0.7314430789
      6  O        -0.9437495685    0.7772635174   -0.3144377203
      7  H         0.5770147000    1.5476277270   -1.7569631075
      8  H         3.8362567189   -0.4907759905    1.4941139750
      9  C         1.5150168735   -1.0403129666    2.4382185327
     10  C         1.5812484663    1.1710413881   -1.9819872365
     11  H        -5.2840979770    0.0043636377    1.7249570450
     12  C         2.0941197642    0.1656509705   -0.9875757439
     13  H        -3.1135911282    0.1260020056    0.5416735797
     14  H         2.0867353699   -1.6426922839    3.1625480878
     15  H         0.4481517377   -1.2226942217    2.6433896691
     16  C         3.5678064562   -0.0947243998   -1.1396023173
     17  C         1.3361814106   -0.4811414658   -0.0251047567
     18  C        -0.1335957455   -0.4127554070    0.0996355118
     19  C         3.4916497617   -1.3985073121    0.9619909257
     20  H        -0.5226240257   -0.8116465467    1.0373019607
     21  C        -5.4977170107   -0.9012782331    1.1480335751
     22  C         1.9466627100   -1.4400290538    1.0059033478
     23  H         1.5803697458    0.7425005251   -3.0012463225
     24  C        -3.3379786731   -0.7898670376   -0.0176809266
     25  H         3.8067252254   -0.0950818846   -2.2191667309
     26  C        -1.1125959000   -0.5066418840   -1.0553695216
     27  C         4.0380733339   -1.3755979520   -0.4589607334
     28  H         3.8774698982   -2.2599549083    1.5307629692
     29  H         5.1364402375   -1.4269903982   -0.4582584042
     30  H        -6.4586454292   -1.3845110706    1.3336257042
     31  C        -4.6027175646   -1.4038121397    0.2382188279
     32  C        -2.3828601607   -1.2350356295   -0.9146781877
     33  H        -0.6823379797   -0.4920545541   -2.0635425863
     34  C         1.4516311810   -2.8777087392    0.7105060336
     35  H         3.6863660385   -2.2551805957   -1.0277657612
     36  H         0.3487343000   -2.9416178567    0.7176177424
     37  H         1.8264204715   -3.5668542506    1.4845960655
     38  H        -4.8602059885   -2.3124446140   -0.3134524817
     39  H         1.8028385731   -3.2379608248   -0.2706195668
     40  C        -2.4940688320   -2.4504742718   -1.7778472066
     41  H        -2.3762934708   -2.1867044392   -2.8439229869
     42  H        -3.4518202161   -2.9718012628   -1.6657478109
     43  H        -1.6881539852   -3.1730049473   -1.5492770769
   Point Group: c1    Number of degrees of freedom:   123


   Energy is  -2036.190424931

 Hessian Updated using BFGS Update

111 Hessian modes will be used to form the next step
  Hessian Eigenvalues:
     0.001985    0.003151    0.003327    0.004661    0.005001    0.008293
     0.008538    0.008971    0.010780    0.011382    0.011569    0.012002
     0.015147    0.015926    0.015981    0.020670    0.021820    0.022393
     0.022969    0.027643    0.028702    0.028706    0.030370    0.030500
     0.032165    0.043629    0.047577    0.047950    0.049709    0.052289
     0.052772    0.053537    0.054387    0.055354    0.056534    0.059867
     0.068531    0.069058    0.070227    0.072754    0.073735    0.075698
     0.078043    0.078661    0.084169    0.084299    0.096909    0.098602
     0.099657    0.105386    0.110359    0.121075    0.134230    0.157234
     0.159996    0.160000    0.160641    0.161511    0.169387    0.188569
     0.220001    0.220425    0.229668    0.245660    0.248633    0.249902
     0.249957    0.249979    0.258251    0.269670    0.274107    0.279437
     0.280305    0.281311    0.287797    0.289172    0.295945    0.305806
     0.316606    0.322642    0.325234    0.328835    0.329152    0.329418
     0.329703    0.330114    0.330355    0.330721    0.331793    0.331921
     0.332248    0.332594    0.333242    0.333295    0.334096    0.335446
     0.335894    0.338127    0.338731    0.339550    0.342132    0.342220
     0.342497    0.342782    0.343073    0.345327    0.345870    0.389251
     0.517544    0.536883    0.585450

 Minimum Search - Taking Simple RFO Step
 Searching for Lamda that Minimizes Along All modes
 Value Taken    Lamda =  -0.01196532
 Calculated Step too Large.  Step scaled by  0.724260
 Step Taken.  Stepsize is  0.300000

                             Maximum     Tolerance    Cnvgd?
         Gradient           0.011030      0.000300      NO
         Displacement       0.136028      0.001200      NO
         Energy change     -0.013078      0.000001      NO


 New Cartesian Coordinates Obtained by Inverse Iteration

 Displacement from previous Coordinates is:  0.768079
 ----------------------------------------------------------------
             Standard Nuclear Orientation (Angstroms)
    I     Atom           X                Y                Z
 ----------------------------------------------------------------
    1      Fe     -0.4965844087     3.6759286178     0.2766004859
    2      O      -0.2726861033     2.2362460442     1.1460874135
    3      H       1.7824227139     0.0167923139     2.6732959554
    4      H       2.2054321558     1.9997979867    -2.0446647801
    5      H       4.0971192591     0.7585427938    -0.7605147886
    6      O      -0.9203297210     0.7978892970    -0.3339025430
    7      H       0.5086348317     1.5168963521    -1.6782869823
    8      H       3.8601326589    -0.5059458699     1.4780685481
    9      C       1.5693981421    -1.0474367462     2.4817681085
   10      C       1.5070237424     1.1486519290    -1.9468604968
   11      H      -5.2650350874     0.0158422156     1.6858736884
   12      C       2.0693084256     0.1546314945    -0.9759138790
   13      H      -3.0889674756     0.1306447197     0.5297249973
   14      H       2.1743187245    -1.6455182474     3.1818764773
   15      H       0.5152909284    -1.2418223856     2.7328037757
   16      C       3.5327369285    -0.1147096083    -1.1559313514
   17      C       1.3259460366    -0.4863965499     0.0119907467
   18      C      -0.1332329955    -0.3906621949     0.1183140691
   19      C       3.4987810170    -1.4109387837     0.9531544360
   20      H      -0.5484738797    -0.7756718673     1.0477843751
   21      C      -5.4791228899    -0.8872417278     1.1057618991
   22      C       1.9550314722    -1.4452833983     1.0345460709
   23      H       1.4567674850     0.7131598529    -2.9625006823
   24      C      -3.3164763269    -0.7795965822    -0.0363573622
   25      H       3.7533017814    -0.1098679212    -2.2391433034
   26      C      -1.0927238922    -0.4926221966    -1.0730022461
   27      C       4.0137194884    -1.3940448355    -0.4794564403
   28      H       3.8934039346    -2.2732632484     1.5131086783
   29      H       5.1107967534    -1.4451837131    -0.5026992215
   30      H      -6.4429602177    -1.3688068778     1.2818251619
   31      C      -4.5748615350    -1.3930031204     0.1949665776
[...]
  --------------------------------------------------------
  Sum of atomic charges =     2.000000
  Sum of spin   charges =     2.000000

 -----------------------------------------------------------------
                    Cartesian Multipole Moments
 -----------------------------------------------------------------
    Charge (ESU x 10^10)
                 9.6064
    Dipole Moment (Debye)
         X      -7.4219      Y       5.9781      Z      -2.6544
       Tot       9.8929
    Quadrupole Moments (Debye-Ang)
        XX     -29.1009     XY      -0.8767     YY     -39.8682
        XZ      -9.4927     YZ      -0.5549     ZZ    -100.4569
    Octopole Moments (Debye-Ang^2)
       XXX    -201.2234    XXY     -48.1578    XYY     -79.8572
       YYY     334.1619    XXZ      37.9548    XYZ     -23.9822
       YYZ      -1.5003    XZZ      -6.3234    YZZ      18.8948
       ZZZ     -10.6908
    Hexadecapole Moments (Debye-Ang^3)
      XXXX   -3014.4471   XXXY     326.1447   XXYY    -956.8670
      XYYY    -226.8413   YYYY   -1227.7098   XXXZ    -360.1672
      XXYZ     -25.3522   XYYZ      34.4528   YYYZ      58.0268
      XXZZ    -862.4419   XYZZ      13.3725   YYZZ    -541.7749
      XZZZ       9.9525   YZZZ       5.9802   ZZZZ   -1067.6753
 -----------------------------------------------------------------
 Calculating analytic gradient of the SCF energy
 Gradient of SCF Energy
            1           2           3           4           5           6
    1  -0.0040515   0.0009606   0.0003322  -0.0000653  -0.0001521   0.0066167
    2   0.0068991  -0.0045030   0.0000470   0.0001521   0.0004992  -0.0052313
    3  -0.0030209   0.0020160   0.0002586   0.0001207   0.0002697   0.0064290
            7           8           9          10          11          12
    1   0.0014547  -0.0000944   0.0003548  -0.0010399   0.0001145   0.0041635
    2  -0.0008106   0.0000722  -0.0002379   0.0003115   0.0001852   0.0032088
    3  -0.0007747   0.0000863   0.0006656   0.0011693  -0.0000351  -0.0054020
           13          14          15          16          17          18
    1  -0.0000465  -0.0000115   0.0004369  -0.0018098  -0.0014981  -0.0019754
    2   0.0003408   0.0000386  -0.0001946  -0.0014325  -0.0021202   0.0016461
    3   0.0001120   0.0001791  -0.0002235   0.0000967   0.0038122  -0.0029912
           19          20          21          22          23          24
    1  -0.0004312  -0.0005256   0.0003471   0.0003277   0.0009452   0.0013812
    2   0.0004560   0.0003703  -0.0008537   0.0017016  -0.0003617  -0.0011597
    3   0.0000360   0.0000741  -0.0009037  -0.0007334  -0.0007568  -0.0016699
           25          26          27          28          29          30
    1   0.0000646  -0.0026412  -0.0004528  -0.0000207   0.0001032   0.0001312
    2   0.0002842   0.0011668  -0.0003523  -0.0001327  -0.0000947   0.0000014
    3   0.0001269  -0.0020849   0.0001158   0.0001805   0.0001844  -0.0001997
           31          32          33          34          35          36
    1  -0.0016941  -0.0006307   0.0001664  -0.0007164   0.0001069   0.0001609
    2   0.0009468   0.0001582   0.0005981  -0.0009379  -0.0002165   0.0003321
    3   0.0020476   0.0012229   0.0000724  -0.0009713  -0.0000088   0.0000601
           37          38          39          40          41          42
    1   0.0002037   0.0000158   0.0000291  -0.0007103   0.0000282  -0.0000650
    2  -0.0000702  -0.0001292  -0.0000998  -0.0002276  -0.0000880  -0.0000125
    3   0.0004081  -0.0002896   0.0001060   0.0002619  -0.0000017   0.0000466
           43
    1   0.0001884
    2  -0.0001428
    3  -0.0000893
 Max gradient component =       6.899E-03
 RMS gradient           =       1.667E-03
 Gradient time:  CPU 1708.40 s  wall 248.63 s
 Geometry Optimization Parameters
   NAtoms,    NIC,     NZ,  NCons,   NDum,   NFix, NCnnct, MaxDiis
       43     329       0       0       0       0       0       0

 Cartesian Hessian Update
 Hessian Updated using BFGS Update


** GEOMETRY OPTIMIZATION IN DELOCALIZED INTERNAL COORDINATES **
   Searching for a Minimum

   Optimization Cycle:   7

                       Coordinates (Angstroms)
     ATOM                X               Y               Z
      1  Fe       -0.7348448977    3.6081555653    0.2981957642
      2  O         0.0494181456    2.3783165912    1.1172198267
      3  H         1.6870547428    0.1009028952    2.6333454211
      4  H         2.4260568265    1.9763534970   -2.1214389931
      5  H         4.1410762238    0.7022510647   -0.7262741226
      6  O        -0.9232133450    0.7725168558   -0.4830597655
      7  H         0.7234742926    1.7305538411   -1.5954785309
      8  H         3.8296098830   -0.5180866795    1.5045223040
      9  C         1.4818982606   -0.9667217106    2.4549336899
     10  C         1.6312692643    1.2322676525   -1.9411996577
     11  H        -5.0997362341   -0.1375841794    1.8602501928
     12  C         2.1234605420    0.1892411805   -0.9989426376
     13  H        -2.9738290145   -0.0014921599    0.6003397397
     14  H         2.0727227936   -1.5539783828    3.1763587538
     15  H         0.4219336997   -1.1650441341    2.6727820173
     16  C         3.5637699868   -0.1603631523   -1.1384601859
     17  C         1.3186808361   -0.4453746198   -0.0173485283
     18  C        -0.1478077222   -0.3368236188    0.0613369098
     19  C         3.4455225684   -1.4151576763    0.9825411562
     20  H        -0.5736486258   -0.6799637289    1.0055162575
     21  C        -5.3556219912   -1.0101742854    1.2505906960
     22  C         1.9036752918   -1.3903985018    1.0213231949
     23  H         1.4369434242    0.7877877911   -2.9398867196
     24  C        -3.2461196156   -0.8806663799    0.0042952941
     25  H         3.8293909294   -0.1468870156   -2.2124350173
     26  C        -1.0884397013   -0.5473061659   -1.1480977404
     27  C         3.9928079275   -1.4428272639   -0.4368413763
     28  H         3.7894128708   -2.2838487630    1.5662839258
     29  H         5.0891177232   -1.5187314273   -0.4330706469
     30  H        -6.3193344726   -1.4848648126    1.4434678812
     31  C        -4.5040708449   -1.4839381395    0.2782221481
     32  C        -2.3453121300   -1.2778082107   -0.9824980202
     33  H        -0.6019723924   -0.6070855070   -2.1257190756
     34  C         1.3487612425   -2.8228079510    0.7389593513
     35  H         3.6270259812   -2.3267997996   -0.9892854318
     36  H         0.2468344511   -2.8503794237    0.7707745744
     37  H         1.7216351982   -3.5020410767    1.5239170491
     38  H        -4.8144201433   -2.3554751903   -0.3037678268
     39  H         1.6808667247   -3.2059730813   -0.2387413953
     40  C        -2.5494024133   -2.4283796408   -1.9086093522
     41  H        -2.4763016172   -2.1064955214   -2.9627891303
     42  H        -3.5145334783   -2.9293118110   -1.7780630714
     43  H        -1.7556719508   -3.1883029805   -1.7743170027
   Point Group: c1    Number of degrees of freedom:   123


   Energy is  -2036.203905128

 Hessian Updated using BFGS Update

116 Hessian modes will be used to form the next step
  Hessian Eigenvalues:
     0.003152    0.003303    0.003441    0.005040    0.006634    0.008553
     0.008970    0.010192    0.011285    0.011804    0.012184    0.014974
     0.015718    0.015985    0.019900    0.020753    0.022004    0.022459
     0.023656    0.027205    0.028418    0.028749    0.029126    0.030480
     0.031621    0.034229    0.043751    0.047963    0.049766    0.050959
     0.052717    0.053839    0.054357    0.055360    0.056528    0.059208
     0.060082    0.069640    0.069923    0.070271    0.073440    0.075698
     0.078208    0.078828    0.084190    0.086635    0.097114    0.098638
     0.101680    0.106934    0.110963    0.121145    0.134708    0.154349
     0.159823    0.159997    0.160000    0.160048    0.160179    0.160241
     0.160497    0.161263    0.163809    0.172416    0.189231    0.219903
     0.221185    0.224220    0.233546    0.249841    0.250557    0.253753
     0.258119    0.269939    0.275843    0.280143    0.280966    0.287204
     0.291295    0.295193    0.305542    0.312936    0.319275    0.322478
     0.325356    0.328847    0.329101    0.329428    0.329727    0.330136
     0.330432    0.330723    0.331798    0.331972    0.332398    0.332577
     0.333208    0.333278    0.334018    0.334622    0.335882    0.338957
     0.339420    0.340853    0.341941    0.342196    0.342333    0.342814
     0.345839    0.346217    0.366412    0.393663    0.482740    0.534686
     0.574388    0.699004

 Minimum Search - Taking Simple RFO Step
 Searching for Lamda that Minimizes Along All modes
 Value Taken    Lamda =  -0.00333810
 Calculated Step too Large.  Step scaled by  0.581996
 Step Taken.  Stepsize is  0.300000

                             Maximum     Tolerance    Cnvgd?
         Gradient           0.006006      0.000300      NO
         Displacement       0.124342      0.001200      NO
         Energy change     -0.001700      0.000001      NO


 New Cartesian Coordinates Obtained by Inverse Iteration

 Displacement from previous Coordinates is:  0.728037
 ----------------------------------------------------------------
             Standard Nuclear Orientation (Angstroms)
    I     Atom           X                Y                Z
 ----------------------------------------------------------------
    1      Fe     -0.5181504056     3.5391356059     0.2287892983
    2      O       0.2339318313     2.3281825723     1.0976484825
    3      H       1.6579008416     0.1016924099     2.6277272235
    4      H       2.4140909687     1.9930591464    -2.1121384845
    5      H       4.1214729117     0.7298339737    -0.7193845665
    6      O      -0.9206405746     0.7443230265    -0.5218574230
    7      H       0.7283988052     1.7885021554    -1.5142746068
    8      H       3.8180567811    -0.5010971397     1.5078075451
    9      C       1.4688273559    -0.9693832695     2.4527935668
   10      C       1.6077563423     1.2699961071    -1.9034937823
   11      H      -5.1048275576    -0.1214270888     1.8464546372
   12      C       2.1074461879     0.2064572340    -0.9875590716
   13      H      -2.9810653606    -0.0096238776     0.5863642934
   14      H       2.0664171784    -1.5466145982     3.1764308776
   15      H       0.4105111385    -1.1815692084     2.6662313650
   16      C       3.5485071831    -0.1358672338    -1.1328579189
   17      C       1.3065841603    -0.4507432844    -0.0158159900
   18      C      -0.1596377331    -0.3467004300     0.0594787658
   19      C       3.4420459544    -1.3999235573     0.9828944979
   20      H      -0.5835312566    -0.6712957947     1.0115008623
   21      C      -5.3669479248    -0.9947434086     1.2404102444
   22      C       1.8999681983    -1.3900263303     1.0201760846
   23      H       1.3548394738     0.8382781964    -2.8945987004
   24      C      -3.2558892432    -0.8907107732    -0.0062558342
   25      H       3.8125137518    -0.1142908547    -2.2074090436
   26      C      -1.0900978567    -0.5875007997    -1.1516957955
   27      C       3.9894569464    -1.4166874029    -0.4372770959
   28      H       3.7942993677    -2.2671856129     1.5634941135
   29      H       5.0863888461    -1.4822039092    -0.4351775466
   30      H      -6.3347823320    -1.4599462822     1.4357523643
   31      C      -4.5194979293    -1.4815726739     0.2722447318
   32      C      -2.3570659770    -1.3035773357    -0.9856739684
   33      H      -0.5949745757    -0.6767419650    -2.1225206081
   34      C       1.3595558070    -2.8294547880     0.7384391565
   35      H       3.6312755833    -2.3020897858    -0.9923532659
   36      H       0.2583116300    -2.8688648951     0.7731316685
   37      H       1.7429373323    -3.5042330390     1.5219506023
   38      H      -4.8337056531    -2.3552379634    -0.3047041768
   39      H       1.6941256724    -3.2069707950    -0.2405643542
   40      C      -2.5681527265    -2.4563623566    -1.9071171581
   41      H      -2.4819561243    -2.1387623751    -2.9615850115
   42      H      -3.5405759149    -2.9440311023    -1.7819128371
   43      H      -1.7859818639    -3.2267665533    -1.7646412217
 ----------------------------------------------------------------
 Molecular Point Group                 C1    NOp =  1
 Largest Abelian Subgroup              C1    NOp =  1
 Nuclear Repulsion Energy =  1775.3213780568 hartrees
 There are       81 alpha and       79 beta electrons
 Applying Cartesian multipole field
    Component          Value
    ---------          -----
     (2,0,0)        1.00000E-12
     (0,2,0)        2.00000E-11
     (0,0,2)       -3.00000E-11
 Nucleus-field energy     =     0.0000000248 hartrees
 Requested basis set is VDZ
 There are 147 shells and 231 basis functions
 A cutoff of  1.0D-12 yielded   8970 shell pairs
 There are     22454 function pairs (     22800 Cartesian)
 Smallest overlap matrix eigenvalue = 8.31E-04
 Guess MOs from SCF MO coefficient file

 -----------------------------------------------------------------------
  General SCF calculation program by
  Eric Jon Sundstrom, Paul Horn, Yuezhi Mao, Dmitri Zuev, Alec White,
  David Stuck, Shaama M.S., Shane Yost, Joonho Lee, David Small,
  Daniel Levine, Susi Lehtola, Hugh Burton, Evgeny Epifanovsky
 -----------------------------------------------------------------------
 Exchange:  B97M-V      Correlation:  B97M-V
 Using SG-2 standard quadrature grid
 Nonlocal Correlation:  rVV10 with C = 0.0100 and b = 6.00 and scale = 1.00000
 Grid used for NLC:  SG-1 standard quadrature
 using 12 threads for integral computing
 -------------------------------------------------------
 OpenMP Integral computing Module                
 Release: version 1.0, May 2013, Q-Chem Inc. Pittsburgh 
 -------------------------------------------------------
 -------------------------------------------------------
 OpenMP BLAS3 based DFT computing Module                
 Release: version 1.0, May 2013, Q-Chem Inc. Pittsburgh 
 -------------------------------------------------------
 -------------------------------------------------------
 OpenMP BLAS3 based DFT computing Module                
 Release: version 1.0, May 2013, Q-Chem Inc. Pittsburgh 
 -------------------------------------------------------
 -------------------------------------------------------
 OpenMP BLAS3 based DFT computing Module                
 Release: version 1.0, May 2013, Q-Chem Inc. Pittsburgh 
 -------------------------------------------------------
 Nonlocal correlation = 0.601051477949
 A unrestricted SCF calculation will be
 performed using DIIS, GDM
 SCF converges when RMS gradient is below 1.0e-08
 ---------------------------------------
  Cycle       Energy         DIIS error
 ---------------------------------------
 Nonlocal correlation = 6.016895940315e-01
    1   -2036.2020095919      2.34e-04  
    2   -2036.1236621658      1.33e-03  Done DIIS. Switching to GDM
 ---------------------------------------
  Cycle       Energy        RMS Gradient
 ---------------------------------------
 Nonlocal correlation = 5.999943884404e-01
    1   -2036.1236621658      3.13e-01   Descent step
 Nonlocal correlation = 6.012746713547e-01
    2   -2035.8728975825      9.87e-01  Line search: overstep
 Nonlocal correlation = 5.996648033998e-01
    3   -2036.1598085258      1.40e-01   Descent step
 Nonlocal correlation = 6.007968507684e-01
    4   -2036.0862340468      2.67e-01  Line search: overstep
 Nonlocal correlation = 6.010365169867e-01
    5   -2036.1814953903      1.10e-01   Normal BFGS step
 Nonlocal correlation = 6.010340989080e-01
    6   -2036.1898648138      1.66e-01   Normal BFGS step
 Nonlocal correlation = 6.010104471559e-01
    7   -2036.2002675868      5.24e-02   Normal BFGS step
 Nonlocal correlation = 6.010523754461e-01
    8   -2036.2032181334      2.02e-02   Normal BFGS step
 Nonlocal correlation = 6.011043065507e-01
    9   -2036.2037194913      3.95e-02   Normal BFGS step
 Nonlocal correlation = 6.010152471561e-01
   10   -2036.2047243917      1.81e-02   Normal BFGS step
 Nonlocal correlation = 6.010078861252e-01
   11   -2036.2049623999      1.02e-02   Normal BFGS step
 Nonlocal correlation = 6.010505818078e-01
   12   -2036.2052724925      8.32e-03   Normal BFGS step
 Nonlocal correlation = 6.010364407574e-01
   13   -2036.2054403015      1.57e-02   Normal BFGS step
 Nonlocal correlation = 6.010117276404e-01
   14   -2036.2056313194      4.37e-03   Normal BFGS step
 Nonlocal correlation = 6.010185044959e-01
   15   -2036.2056442291      4.59e-03   Normal BFGS step
 Nonlocal correlation = 6.010265529966e-01
   16   -2036.2056954643      9.56e-04   Normal BFGS step
 Nonlocal correlation = 6.010289110363e-01
   17   -2036.2057020693      1.02e-03   Normal BFGS step
 Nonlocal correlation = 6.010226016421e-01
   18   -2036.2057090537      9.10e-04   Normal BFGS step
 Nonlocal correlation = 6.010205070978e-01
   19   -2036.2057129720      7.68e-04   Normal BFGS step
 Nonlocal correlation = 6.010260529685e-01
   20   -2036.2057164750      1.09e-03   Normal BFGS step
 Nonlocal correlation = 6.010297234620e-01
   21   -2036.2057208185      6.15e-04   Normal BFGS step
 Nonlocal correlation = 6.010296427833e-01
   22   -2036.2057247824      6.70e-04   Normal BFGS step
 Nonlocal correlation = 6.010371556848e-01
   23   -2036.2057294007      1.13e-03   Normal BFGS step
 Nonlocal correlation = 6.010219370492e-01
   24   -2036.2057334348      1.12e-03   Normal BFGS step
 Nonlocal correlation = 6.010297001743e-01
   25   -2036.2057331536      2.92e-03  Line search: overstep
 Nonlocal correlation = 6.010287453463e-01
   26   -2036.2057373339      1.13e-03   Normal BFGS step
 Nonlocal correlation = 6.010293899724e-01
   27   -2036.2057397863      1.37e-03   Normal BFGS step
 Nonlocal correlation = 6.010302993940e-01
   28   -2036.2057426179      5.63e-04   Normal BFGS step
 Nonlocal correlation = 6.010299278282e-01
   29   -2036.2057445450      5.77e-04   Normal BFGS step
 Nonlocal correlation = 6.010385388400e-01
   30   -2036.2057473304      7.55e-04   Normal BFGS step
 Nonlocal correlation = 6.010324386076e-01
   31   -2036.2057513950      8.29e-04   Normal BFGS step
 Nonlocal correlation = 6.010286089377e-01
   32   -2036.2057553161      9.90e-04   Normal BFGS step
 Nonlocal correlation = 6.010233309826e-01
   33   -2036.2057621801      1.18e-03   Normal BFGS step
 Nonlocal correlation = 6.010222681221e-01
   34   -2036.2057680713      2.41e-03   Normal BFGS step
 Nonlocal correlation = 6.010282590279e-01
   35   -2036.2057703129      3.11e-03   Normal BFGS step
 Nonlocal correlation = 6.010265564556e-01
   36   -2036.2057773497      1.07e-03   Normal BFGS step
 Nonlocal correlation = 6.010242664483e-01
   37   -2036.2057781605      7.74e-04   Normal BFGS step
 Nonlocal correlation = 6.010263911130e-01
   38   -2036.2057791459      2.01e-04   Normal BFGS step
 Nonlocal correlation = 6.010262929918e-01
   39   -2036.2057793077      1.93e-04   Normal BFGS step
 Nonlocal correlation = 6.010254767495e-01
   40   -2036.2057794602      8.17e-05   Normal BFGS step
 Nonlocal correlation = 6.010257476672e-01
   41   -2036.2057794870      4.98e-05   Normal BFGS step
 Nonlocal correlation = 6.010259604103e-01
   42   -2036.2057795092      2.95e-05   Normal BFGS step
 Nonlocal correlation = 6.010258376846e-01
   43   -2036.2057795098      3.07e-05   Normal BFGS step
 Nonlocal correlation = 6.010257982992e-01
   44   -2036.2057795128      4.25e-06   Normal BFGS step
 Nonlocal correlation = 6.010258365085e-01
   45   -2036.2057795127      1.34e-05   Normal BFGS step
 Nonlocal correlation = 6.010258109271e-01
   46   -2036.2057795129      6.81e-06   Normal BFGS step
 Nonlocal correlation = 6.010258243300e-01
   47   -2036.2057795126      1.62e-05   Normal BFGS step
 Nonlocal correlation = 6.010258396629e-01
   48   -2036.2057795130      1.63e-06   Normal BFGS step
