
Running Job 1 of 1 mol_3_1_opt_631g_gga.in
qchem mol_3_1_opt_631g_gga.in_8292.0 /scr/c295_lal/137008/qchem8292/ 1
/usr/software/qchem_511/exe/qcprog.exe_s mol_3_1_opt_631g_gga.in_8292.0 /scr/c295_lal/137008/qchem8292/
Check license passed

                  Welcome to Q-Chem
     A Quantum Leap Into The Future Of Chemistry


 Q-Chem 5.1, Q-Chem, Inc., Pleasanton, CA (2018)

 Yihan Shao,  Zhengting Gan,  E. Epifanovsky,  A. T. B. Gilbert,  M. Wormit,  
 J. Kussmann,  A. W. Lange,  A. Behn,  Jia Deng,  Xintian Feng,  D. Ghosh,  
 M. Goldey,  P. R. Horn,  L. D. Jacobson,  I. Kaliman,  T. Kus,  A. Landau,  
 Jie Liu,  E. I. Proynov,  R. M. Richard,  R. P. Steele,  E. J. Sundstrom,  
 H. L. Woodcock III,  P. M. Zimmerman,  D. Zuev,  B. Albrecht,  E. Alguire,  
 S. A. Baeppler,  D. Barton,  Z. Benda,  Y. A. Bernard,  E. J. Berquist,  
 K. B. Bravaya,  H. Burton,  D. Casanova,  Chun-Min Chang,  Yunqing Chen,  
 A. Chien,  K. D. Closser,  M. P. Coons,  S. Coriani,  S. Dasgupta,  
 A. L. Dempwolff,  M. Diedenhofen,  Hainam Do,  R. G. Edgar,  Po-Tung Fang,  
 S. Faraji,  S. Fatehi,  Qingguo Feng,  K. D. Fenk,  J. Fosso-Tande,  
 Qinghui Ge,  A. Ghysels,  G. Gidofalvi,  J. Gomes,  J. Gonthier,  A. Gunina,  
 D. Hait,  M. W. D. Hanson-Heine,  P. H. P. Harbach,  A. W. Hauser,  
 J. E. Herr,  E. G. Hohenstein,  Z. C. Holden,  Kerwin Hui,  B. C. Huynh,  
 T.-C. Jagau,  Hyunjun Ji,  B. Kaduk,  K. Khistyaev,  Jaehoon Kim,  
 P. Klunzinger,  K. Koh,  D. Kosenkov,  L. Koulias,  T. Kowalczyk,  
 C. M. Krauter,  A. Kunitsa,  Ka Un Lao,  A. Laurent,  K. V. Lawler,  
 Joonho Lee,  D. Lefrancois,  S. Lehtola,  D. S. Levine,  Yi-Pei Li,  
 You-Sheng Lin,  Fenglai Liu,  E. Livshits,  A. Luenser,  P. Manohar,  
 E. Mansoor,  S. F. Manzer,  Shan-Ping Mao,  Yuezhi Mao,  N. Mardirossian,  
 A. V. Marenich,  T. Markovich,  L. A. Martinez-Martinez,  S. A. Maurer,  
 N. J. Mayhall,  S. C. McKenzie,  J.-M. Mewes,  A. F. Morrison,  
 J. W. Mullinax,  K. Nanda,  T. S. Nguyen-Beck,  R. Olivares-Amaya,  
 J. A. Parkhill,  T. M. Perrine,  F. Plasser,  P. Pokhilko,  S. Prager,  
 A. Prociuk,  E. Ramos,  D. R. Rehn,  F. Rob,  M. Schneider,  N. Sergueev,  
 S. M. Sharada,  S. Sharma,  D. W. Small,  T. Stauch,  T. Stein,  
 Yu-Chuan Su,  A. J. W. Thom,  A. Tkatchenko,  T. Tsuchimochi,  N. M. Tubman,  
 L. Vogt,  M. L. Vidal,  O. Vydrov,  M. A. Watson,  J. Wenzel,  
 M. de Wergifosse,  T. A. Wesolowski,  A. White,  J. Witte,  A. Yamada,  
 Jun Yang,  K. Yao,  S. Yeganeh,  S. R. Yost,  Zhi-Qiang You,  A. Zech,  
 Igor Ying Zhang,  Xing Zhang,  Yan Zhao,  Ying Zhu,  B. R. Brooks,  
 G. K. L. Chan,  C. J. Cramer,  M. S. Gordon,  W. J. Hehre,  A. Klamt,  
 M. W. Schmidt,  C. D. Sherrill,  D. G. Truhlar,  A. Aspuru-Guzik,  R. Baer,  
 A. T. Bell,  N. A. Besley,  Jeng-Da Chai,  A. E. DePrince, III,  
 R. A. DiStasio Jr.,  A. Dreuw,  B. D. Dunietz,  T. R. Furlani,  
 Chao-Ping Hsu,  Yousung Jung,  Jing Kong,  D. S. Lambrecht,  WanZhen Liang,  
 C. Ochsenfeld,  V. A. Rassolov,  L. V. Slipchenko,  J. E. Subotnik,  
 T. Van Voorhis,  J. M. Herbert,  A. I. Krylov,  P. M. W. Gill,  M. Head-Gordon

 Contributors to earlier versions of Q-Chem not listed above: 
 R. D. Adamson,  B. Austin,  J. Baker,  G. J. O. Beran,  K. Brandhorst,  
 S. T. Brown,  E. F. C. Byrd,  A. K. Chakraborty,  C.-L. Cheng,  
 Siu Hung Chien,  D. M. Chipman,  D. L. Crittenden,  H. Dachsel,  
 R. J. Doerksen,  A. D. Dutoi,  L. Fusti-Molnar,  W. A. Goddard III,  
 A. Golubeva-Zadorozhnaya,  S. R. Gwaltney,  G. Hawkins,  A. Heyden,  
 S. Hirata,  G. Kedziora,  F. J. Keil,  C. Kelley,  Jihan Kim,  R. A. King,  
 R. Z. Khaliullin,  P. P. Korambath,  W. Kurlancheek,  A. M. Lee,  M. S. Lee,  
 S. V. Levchenko,  Ching Yeh Lin,  D. Liotard,  R. C. Lochan,  I. Lotan,  
 P. E. Maslen,  N. Nair,  D. P. O'Neill,  D. Neuhauser,  E. Neuscamman,  
 C. M. Oana,  R. Olson,  B. Peters,  R. Peverati,  P. A. Pieniazek,  
 Y. M. Rhee,  J. Ritchie,  M. A. Rohrdanz,  E. Rosta,  N. J. Russ,  
 H. F. Schaefer III,  N. E. Schultz,  N. Shenvi,  A. C. Simmonett,  A. Sodt,  
 D. Stuck,  K. S. Thanthiriwatte,  V. Vanovschi,  Tao Wang,  A. Warshel,  
 C. F. Williams,  Q. Wu,  X. Xu,  W. Zhang

 Please cite Q-Chem as follows:
 Y. Shao et al., Mol. Phys. 113, 184-215 (2015)
 DOI: 10.1080/00268976.2014.952696

 Q-Chem 5.1.1 for Intel X86 EM64T Linux

 Parts of Q-Chem use Armadillo 8.300.2 (Tropical Shenanigans).
 http://arma.sourceforge.net/

 Q-Chem begins on Tue Oct 30 21:11:21 2018  

Host: cub-0-3.local
0

     Scratch files written to /scr/c295_lal/137008/qchem8292//
 Aug318 |scratch|qcdevops|jenkins|workspace|build_RNUM -1
Processing $rem in /usr/software/qchem_511/config/preferences.
 MEM_TOTAL  2000 
Input Ideriv = 2
Curr. Ideriv = -1
Max.  Ideriv = 2

Checking the input file for inconsistencies... 	...done.

--------------------------------------------------------------
User input:
--------------------------------------------------------------
$molecule
0 1
C         14.73675        5.00779        5.11383
C         13.51462        4.47143        5.13553
C         13.30798        3.05065        5.48434
C         12.07864        2.51936        5.49860
C         11.86379        1.09810        5.84244
C         10.63173        0.57261        5.84352
H         14.86475        6.05368        4.85389
H         15.61532        4.41568        5.35217
H         12.66149        5.09830        4.88976
H         14.16821        2.43200        5.72993
H         12.71889        0.47448        6.09339
C          6.21786       -5.23307        6.75322
C          7.45036       -4.72091        6.78623
H          6.05847       -6.27942        6.99263
H          5.36103       -4.62014        6.48877
C          7.69482       -3.30038        6.46376
C          8.93226       -2.78795        6.49190
H          8.28179       -5.36703        7.05479
C          9.17014       -1.36689        6.16428
C         10.40531       -0.84859        6.17929
H          9.77519       -3.42265        6.75592
H          8.32401       -0.73509        5.90344
H         11.25408       -1.47803        6.43713
H          9.77925        1.19864        5.58953
H          6.85298       -2.66489        6.19784
H         11.22063        3.14034        5.25079

$end

$rem
BASIS = 6-31G
METHOD  = BLYP
JOBTYPE = OPT
$end
--------------------------------------------------------------
 ----------------------------------------------------------------
             Standard Nuclear Orientation (Angstroms)
    I     Atom           X                Y                Z
 ----------------------------------------------------------------
    1      C       6.7101203903    -0.2170955599    -0.0372755219
    2      C       5.5463705874     0.4362622921    -0.0135144199
    3      C       4.2601124401    -0.2906724893    -0.0040214742
    4      C       3.0969538134     0.3730020744     0.0146153160
    5      C       1.8060004393    -0.3465642279     0.0201087916
    6      C       0.6474765726     0.3256532844     0.0277780010
    7      H       7.6428007451     0.3377842216    -0.0446565570
    8      H       6.7458551549    -1.3023807913    -0.0500991567
    9      H       5.5542996687     1.5230036034    -0.0021065882
   10      H       4.2629583800    -1.3782950521    -0.0143648277
   11      H       1.8011363954    -1.4342296545     0.0142711804
   12      C      -6.7016954624     0.2903441304    -0.0366144846
   13      C      -5.5578393887    -0.3978202709    -0.0147783864
   14      H      -7.6510475271    -0.2352217645    -0.0456582704
   15      H      -6.7045015904     1.3764723912    -0.0462146383
   16      C      -4.2523361984     0.2929611062    -0.0031343934
   17      C      -3.1046393256    -0.3977980293     0.0135336282
   18      H      -5.5970050783    -1.4837623410    -0.0065782575
   19      C      -1.8020281065     0.2996834731     0.0210734010
   20      C      -0.6493756654    -0.3828594150     0.0267896044
   21      H      -3.1272826174    -1.4852446296     0.0189009560
   22      H      -1.7840155604     1.3872556172     0.0184084485
   23      H      -0.6635440062    -1.4704650172     0.0268545248
   24      H       0.6562172130     1.4133388574     0.0309915517
   25      H      -4.2281637838     1.3804446823    -0.0102574593
   26      H       3.0975720298     1.4607216685     0.0231487230
 ----------------------------------------------------------------
 Molecular Point Group                 C1    NOp =  1
 Largest Abelian Subgroup              C1    NOp =  1
 Nuclear Repulsion Energy =   534.7440125568 hartrees
 There are       43 alpha and       43 beta electrons
 Requested basis set is 6-31G
 There are 64 shells and 136 basis functions

 Total QAlloc Memory Limit   2000 MB
 Mega-Array Size       188 MB
 MEM_STATIC part       192 MB
 A cutoff of  1.0D-11 yielded   1254 shell pairs
 There are      6279 function pairs
 
 -------------------------------------------------------
 OpenMP Integral Computing Module                       
 Release: version 1.0, May 2013, Q-Chem Inc. Pittsburgh 
 -------------------------------------------------------
 Integral Job Info:
 Integral job number is                      11
 Integral operator is                         1
 short-range coefficients                     0
 long-range coefficients              100000000
 Omega coefficients                           0
 if combine SR and LR in K                    0
 Integral screening is                        0
 Integral computing path is                   2
 max size of driver memory is            800000
 size of driver memory is                 45569
 size of scratch memory is              2040132
 max col of scratch BK array                289
 max len of scratch array in speh3           22
 max len of scratch index in speh4            8
 max int batch size is                      520
 min int batch size is                       52
 fixed nKL is                                52
 max L of basis functions is                  1
 order of int derivative is                   0
 number of shells is                         64
 number of basis is                         136
 number of cartesian basis is               136
 number of contracted shell pairs          1254
 number of primitive shell pairs           5429
 maxK2 (contraction) of shell pair           36
 max number of K2 of shell pair               1
 max number of CS2 of shell pair            210
 max number of PS2 of shell pair            840
 mem total for path MDJ                  527990
 -------------------------------------------------------
 Smallest overlap matrix eigenvalue = 2.18E-03

 Scale SEOQF with 1.000000e-02/1.000000e+00/1.000000e+00

 Standard Electronic Orientation quadrupole field applied
 Nucleus-field energy     =     0.0000000293 hartrees
 Guess from superposition of atomic densities
 Warning:  Energy on first SCF cycle will be non-variational
 SAD guess density has 86.000000 electrons

 -----------------------------------------------------------------------
  General SCF calculation program by
  Eric Jon Sundstrom, Paul Horn, Yuezhi Mao, Dmitri Zuev, Alec White,
  David Stuck, Shaama M.S., Shane Yost, Joonho Lee, David Small,
  Daniel Levine, Susi Lehtola, Hugh Burton, Evgeny Epifanovsky
 -----------------------------------------------------------------------
 Exchange:  B88      Correlation:  LYP
 Using SG-1 standard quadrature grid
 using 4 threads for integral computing
 -------------------------------------------------------
 OpenMP Integral computing Module                
 Release: version 1.0, May 2013, Q-Chem Inc. Pittsburgh 
 -------------------------------------------------------
 -------------------------------------------------------
 OpenMP BLAS3 based DFT computing Module                
 Release: version 1.0, May 2013, Q-Chem Inc. Pittsburgh 
 -------------------------------------------------------
 A restricted SCF calculation will be
 performed using DIIS
 SCF converges when DIIS error is below 1.0e-08
 ---------------------------------------
  Cycle       Energy         DIIS error
 ---------------------------------------
    1    -467.0842922011      8.04e-02  
    2    -464.9670586433      1.04e-02  
    3    -464.9118401304      1.14e-02  
    4    -465.2715572973      1.44e-03  
    5    -465.2737428064      1.15e-03  
    6    -465.2781118337      1.47e-04  
    7    -465.2781584928      5.62e-05  
    8    -465.2781654725      3.00e-05  
    9    -465.2781678761      4.34e-06  
   10    -465.2781679254      2.63e-06  
   11    -465.2781679439      3.40e-07  
   12    -465.2781679441      2.73e-07  
   13    -465.2781679443      2.59e-08  
   14    -465.2781679443      1.16e-08  
   15    -465.2781679443      4.05e-09  Convergence criterion met
 ---------------------------------------
 SCF time:   CPU 32.89s  wall 9.00s 
 SCF   energy in the final basis set =     -465.2781679443
 Total energy in the final basis set =     -465.2781679443
 
 --------------------------------------------------------------
 
                    Orbital Energies (a.u.)
 --------------------------------------------------------------
 
 Alpha MOs
 -- Occupied --
 -9.921  -9.920  -9.920  -9.920  -9.920  -9.919  -9.919  -9.919
 -9.918  -9.918  -9.908  -9.907  -0.743  -0.731  -0.712  -0.688
 -0.658  -0.629  -0.555  -0.519  -0.506  -0.497  -0.486  -0.484
 -0.429  -0.419  -0.403  -0.398  -0.366  -0.361  -0.339  -0.336
 -0.325  -0.323  -0.313  -0.303  -0.301  -0.288  -0.286  -0.265
 -0.233  -0.196  -0.157
 -- Virtual --
 -0.073  -0.031   0.012   0.047   0.064   0.066   0.073   0.080
  0.101   0.103   0.105   0.121   0.121   0.130   0.135   0.140
  0.162   0.172   0.174   0.181   0.247   0.290   0.294   0.300
  0.327   0.332   0.344   0.354   0.382   0.391   0.394   0.471
  0.482   0.492   0.498   0.508   0.522   0.527   0.536   0.548
  0.556   0.572   0.585   0.595   0.596   0.603   0.608   0.617
  0.629   0.639   0.648   0.652   0.660   0.679   0.686   0.702
  0.706   0.765   0.779   0.801   0.819   0.830   0.846   0.848
  0.858   0.869   0.871   0.872   0.881   0.914   0.915   0.931
  0.935   0.971   0.980   1.052   1.054   1.069   1.076   1.096
  1.117   1.148   1.151   1.195   1.219   1.252   1.289   1.297
  1.308   1.309   1.406   1.486   1.489
 --------------------------------------------------------------
 
          Ground-State Mulliken Net Atomic Charges

     Atom                 Charge (a.u.)
  ----------------------------------------
      1 C                    -0.279081
      2 C                    -0.034614
      3 C                    -0.090671
      4 C                    -0.090380
      5 C                    -0.091559
      6 C                    -0.092934
      7 H                     0.101683
      8 H                     0.106250
      9 H                     0.095144
     10 H                     0.094343
     11 H                     0.093471
     12 C                    -0.279068
     13 C                    -0.033788
     14 H                     0.101900
     15 H                     0.106452
     16 C                    -0.091951
     17 C                    -0.088228
     18 H                     0.095376
     19 C                    -0.093881
     20 C                    -0.090230
     21 H                     0.093936
     22 H                     0.093387
     23 H                     0.093283
     24 H                     0.093067
     25 H                     0.094419
     26 H                     0.093673
  ----------------------------------------
  Sum of atomic charges =    -0.000000

 -----------------------------------------------------------------
                    Cartesian Multipole Moments
 -----------------------------------------------------------------
    Charge (ESU x 10^10)
                -0.0000
    Dipole Moment (Debye)
         X      -0.0368      Y      -0.0073      Z      -0.0098
       Tot       0.0388
    Quadrupole Moments (Debye-Ang)
        XX     -70.5616     XY       1.0593     YY     -64.6976
        XZ       0.0011     YZ       0.0202     ZZ     -79.3612
    Octopole Moments (Debye-Ang^2)
       XXX      -1.6823    XXY      -0.3594    XYY       0.0848
       YYY      -0.0837    XXZ      -1.0453    XYZ       0.4125
       YYZ       0.0021    XZZ      -0.0289    YZZ      -0.0139
       ZZZ       0.0255
    Hexadecapole Moments (Debye-Ang^3)
      XXXX   -7863.8762   XXXY      68.8881   XXYY   -1274.7060
      XYYY      -0.2841   YYYY    -207.2519   XXXZ       0.0668
      XXYZ       0.3557   XYYZ       0.0055   YYYZ       0.0372
      XXZZ   -1526.8154   XYZZ       0.5020   YYZZ     -53.1964
      XZZZ       0.0024   YZZZ       0.0196   ZZZZ     -81.9220
 -----------------------------------------------------------------
 Calculating analytic gradient of the SCF energy
 Gradient of SCF Energy
            1           2           3           4           5           6
    1  -0.0210359   0.0232175  -0.0343545   0.0384295  -0.0401866   0.0410062
    2   0.0027510   0.0158064  -0.0162384   0.0180357  -0.0168561   0.0172039
    3   0.0003136  -0.0001637   0.0002130  -0.0002709   0.0000866  -0.0001118
            7           8           9          10          11          12
    1  -0.0073372  -0.0035049   0.0060062  -0.0040605  -0.0037838   0.0208004
    2   0.0020495   0.0048932  -0.0060369   0.0049534   0.0050253  -0.0033941
    3   0.0001182   0.0000796  -0.0001573   0.0000590   0.0000098   0.0003074
           13          14          15          16          17          18
    1  -0.0235437   0.0072975   0.0033319   0.0347353  -0.0386019  -0.0057267
    2  -0.0151317  -0.0021409  -0.0048560   0.0154500  -0.0171970   0.0062607
    3  -0.0002130   0.0001119   0.0000631   0.0002637  -0.0003227  -0.0001377
           19          20          21          22          23          24
    1   0.0404979  -0.0408941  -0.0036189   0.0036448  -0.0037053   0.0037497
    2   0.0164725  -0.0169120   0.0051523  -0.0051150   0.0050806  -0.0051277
    3   0.0001318  -0.0001539  -0.0000792  -0.0000041  -0.0000405  -0.0000537
           25          26
    1   0.0038148   0.0038223
    2  -0.0050182  -0.0051106
    3   0.0000444  -0.0000935
 Max gradient component =       4.101E-02
 RMS gradient           =       1.491E-02
 Gradient time:  CPU 4.97 s  wall 1.25 s
 Geometry Optimization Parameters
   NAtoms,    NIC,     NZ,  NCons,   NDum,   NFix, NCnnct, MaxDiis
       26     157       0       0       0       0       0       0


** GEOMETRY OPTIMIZATION IN DELOCALIZED INTERNAL COORDINATES **
   Searching for a Minimum

   Optimization Cycle:   1

                       Coordinates (Angstroms)
     ATOM                X               Y               Z
      1  C         6.7101203903   -0.2170955599   -0.0372755219
      2  C         5.5463705874    0.4362622921   -0.0135144199
      3  C         4.2601124401   -0.2906724893   -0.0040214742
      4  C         3.0969538134    0.3730020744    0.0146153160
      5  C         1.8060004393   -0.3465642279    0.0201087916
      6  C         0.6474765726    0.3256532844    0.0277780010
      7  H         7.6428007451    0.3377842216   -0.0446565570
      8  H         6.7458551549   -1.3023807913   -0.0500991567
      9  H         5.5542996687    1.5230036034   -0.0021065882
     10  H         4.2629583800   -1.3782950521   -0.0143648277
     11  H         1.8011363954   -1.4342296545    0.0142711804
     12  C        -6.7016954624    0.2903441304   -0.0366144846
     13  C        -5.5578393887   -0.3978202709   -0.0147783864
     14  H        -7.6510475271   -0.2352217645   -0.0456582704
     15  H        -6.7045015904    1.3764723912   -0.0462146383
     16  C        -4.2523361984    0.2929611062   -0.0031343934
     17  C        -3.1046393256   -0.3977980293    0.0135336282
     18  H        -5.5970050783   -1.4837623410   -0.0065782575
     19  C        -1.8020281065    0.2996834731    0.0210734010
     20  C        -0.6493756654   -0.3828594150    0.0267896044
     21  H        -3.1272826174   -1.4852446296    0.0189009560
     22  H        -1.7840155604    1.3872556172    0.0184084485
     23  H        -0.6635440062   -1.4704650172    0.0268545248
     24  H         0.6562172130    1.4133388574    0.0309915517
     25  H        -4.2281637838    1.3804446823   -0.0102574593
     26  H         3.0975720298    1.4607216685    0.0231487230
   Point Group: c1    Number of degrees of freedom:    72


   Energy is   -465.278167944


 Attempting to Generate Delocalized Internal Coordinates

 72 Hessian modes will be used to form the next step
  Hessian Eigenvalues:
     0.012094    0.012119    0.012140    0.012156    0.012216    0.021300
     0.021303    0.021311    0.021311    0.021318    0.021320    0.021345
     0.021359    0.021501    0.021514    0.030391    0.030398    0.030417
     0.030435    0.030994    0.030994    0.031028    0.031028    0.159999
     0.159999    0.159999    0.159999    0.160000    0.160000    0.160000
     0.160000    0.160000    0.160000    0.160000    0.160000    0.160000
     0.160000    0.220000    0.220000    0.220000    0.220000    0.220000
     0.220000    0.220000    0.220000    0.220000    0.220000    0.348042
     0.348257    0.348446    0.348582    0.349105    0.350710    0.350736
     0.350768    0.350769    0.350800    0.350803    0.350807    0.350827
     0.351815    0.351993    0.352585    0.352850    0.353635    0.353781
     0.572858    0.572966    0.573295    0.573600    0.583205    0.583807

 Minimum Search - Taking Simple RFO Step
 Searching for Lamda that Minimizes Along All modes
 Value Taken    Lamda =  -0.03082544
 Step Taken.  Stepsize is  0.299575

                             Maximum     Tolerance    Cnvgd?
         Gradient           0.066951      0.000300      NO
         Displacement       0.170048      0.001200      NO
         Energy change     *********      0.000001      NO


 New Cartesian Coordinates Obtained by Inverse Iteration

 Displacement from previous Coordinates is:  1.087393
 ----------------------------------------------------------------
             Standard Nuclear Orientation (Angstroms)
    I     Atom           X                Y                Z
 ----------------------------------------------------------------
    1      C       6.8692273868    -0.2339679279    -0.0234560589
    2      C       5.6626927495     0.3996057727    -0.0085176194
    3      C       4.3679454361    -0.2908348904    -0.0042369909
    4      C       3.1539097274     0.3527015484     0.0076037349
    5      C       1.8601827384    -0.3285651507     0.0098797037
    6      C       0.6477300726     0.3219661132     0.0149995559
    7      H       7.8079051805     0.3250200670    -0.0264092560
    8      H       6.9404077568    -1.3244666124    -0.0330977268
    9      H       5.6330378491     1.4942791738     0.0006804369
   10      H       4.3983187097    -1.3849503161    -0.0118862827
   11      H       1.8829380896    -1.4229596726     0.0057921948
   12      C      -6.8644629085     0.2778734272    -0.0228086637
   13      C      -5.6684093943    -0.3754566434    -0.0096891050
   14      H      -7.8123791762    -0.2652842852    -0.0274172689
   15      H      -6.9176434767     1.3694562335    -0.0292458282
   16      C      -4.3634594993     0.2950347654    -0.0033669045
   17      C      -3.1577861088    -0.3643125447     0.0065949686
   18      H      -5.6565796459    -1.4704136825    -0.0037011912
   19      C      -1.8578388395     0.3046425114     0.0108588321
   20      C      -0.6486008673    -0.3519658679     0.0140189905
   21      H      -3.1449106175    -1.4589601901     0.0106453319
   22      H      -1.8731071916     1.3992707926     0.0100260054
   23      H      -0.6315616864    -1.4465077510     0.0143156730
   24      H       0.6272253813     1.4165620040     0.0185579439
   25      H      -4.3783523687     1.3895459456    -0.0078022148
   26      H       3.1279702223     1.4472053394     0.0148614307
 ----------------------------------------------------------------
 Molecular Point Group                 C1    NOp =  1
 Largest Abelian Subgroup              C1    NOp =  1
 Nuclear Repulsion Energy =   526.4362309769 hartrees
 There are       43 alpha and       43 beta electrons
 Applying Cartesian multipole field
    Component          Value
    ---------          -----
     (2,0,0)        1.00000E-12
     (0,2,0)        2.00000E-10
     (0,0,2)       -3.00000E-10
 Nucleus-field energy     =     0.0000000290 hartrees
 Requested basis set is 6-31G
 There are 64 shells and 136 basis functions
 A cutoff of  1.0D-11 yielded   1240 shell pairs
 There are      6145 function pairs
 Smallest overlap matrix eigenvalue = 2.42E-03
 Guess MOs from SCF MO coefficient file

 -----------------------------------------------------------------------
  General SCF calculation program by
  Eric Jon Sundstrom, Paul Horn, Yuezhi Mao, Dmitri Zuev, Alec White,
  David Stuck, Shaama M.S., Shane Yost, Joonho Lee, David Small,
  Daniel Levine, Susi Lehtola, Hugh Burton, Evgeny Epifanovsky
 -----------------------------------------------------------------------
 Exchange:  B88      Correlation:  LYP
 Using SG-1 standard quadrature grid
 using 4 threads for integral computing
 -------------------------------------------------------
 OpenMP Integral computing Module                
 Release: version 1.0, May 2013, Q-Chem Inc. Pittsburgh 
 -------------------------------------------------------
 -------------------------------------------------------
 OpenMP BLAS3 based DFT computing Module                
 Release: version 1.0, May 2013, Q-Chem Inc. Pittsburgh 
 -------------------------------------------------------
 A restricted SCF calculation will be
 performed using DIIS
 SCF converges when DIIS error is below 1.0e-08
 ---------------------------------------
  Cycle       Energy         DIIS error
 ---------------------------------------
    1    -465.2895846022      1.05e-03  
    2    -465.2940243506      3.74e-04  
    3    -465.2939172702      4.13e-04  
    4    -465.2942023517      2.58e-04  
    5    -465.2944189260      3.42e-05  
    6    -465.2944207797      2.78e-05  
    7    -465.2944230238      2.26e-06  
    8    -465.2944230333      1.45e-06  
    9    -465.2944230402      4.61e-07  
   10    -465.2944230409      1.17e-07  
   11    -465.2944230409      5.72e-08  
   12    -465.2944230409      6.88e-09  Convergence criterion met
 ---------------------------------------
 SCF time:   CPU 25.34s  wall 6.00s 
 SCF   energy in the final basis set =     -465.2944230409
 Total energy in the final basis set =     -465.2944230409
 
 --------------------------------------------------------------
 
                    Orbital Energies (a.u.)
 --------------------------------------------------------------
 
 Alpha MOs
 -- Occupied --
 -9.928  -9.928  -9.928  -9.928  -9.928  -9.927  -9.927  -9.927
 -9.926  -9.926  -9.916  -9.916  -0.738  -0.727  -0.709  -0.685
 -0.655  -0.624  -0.566  -0.528  -0.502  -0.494  -0.491  -0.483
 -0.427  -0.417  -0.407  -0.391  -0.372  -0.362  -0.342  -0.338
 -0.324  -0.319  -0.309  -0.301  -0.300  -0.295  -0.286  -0.264
 -0.233  -0.196  -0.156
 -- Virtual --
 -0.086  -0.041   0.005   0.041   0.065   0.065   0.075   0.081
  0.100   0.101   0.103   0.120   0.121   0.129   0.135   0.140
  0.158   0.164   0.172   0.173   0.225   0.274   0.294   0.308
  0.321   0.339   0.350   0.351   0.368   0.371   0.373   0.463
  0.476   0.482   0.491   0.507   0.524   0.526   0.532   0.542
  0.554   0.571   0.592   0.592   0.593   0.596   0.600   0.606
  0.613   0.624   0.625   0.645   0.650   0.656   0.656   0.695
  0.699   0.764   0.773   0.791   0.809   0.821   0.837   0.840
  0.850   0.866   0.866   0.873   0.880   0.905   0.907   0.929
  0.934   0.972   0.978   1.024   1.027   1.043   1.065   1.072
  1.099   1.128   1.135   1.183   1.199   1.254   1.268   1.299
  1.313   1.320   1.390   1.462   1.464
 --------------------------------------------------------------
 
          Ground-State Mulliken Net Atomic Charges

     Atom                 Charge (a.u.)
  ----------------------------------------
      1 C                    -0.281332
      2 C                    -0.037496
      3 C                    -0.092303
      4 C                    -0.091583
      5 C                    -0.092234
      6 C                    -0.093325
      7 H                     0.109400
      8 H                     0.109117
      9 H                     0.095139
     10 H                     0.093203
     11 H                     0.093594
     12 C                    -0.281281
     13 C                    -0.037180
     14 H                     0.109500
     15 H                     0.109218
     16 C                    -0.092954
     17 C                    -0.090419
     18 H                     0.095260
     19 C                    -0.093589
     20 C                    -0.091760
     21 H                     0.093779
     22 H                     0.093549
     23 H                     0.093463
     24 H                     0.093350
     25 H                     0.093243
     26 H                     0.093642
  ----------------------------------------
  Sum of atomic charges =    -0.000000

 -----------------------------------------------------------------
                    Cartesian Multipole Moments
 -----------------------------------------------------------------
    Charge (ESU x 10^10)
                -0.0000
    Dipole Moment (Debye)
         X      -0.0199      Y      -0.0026      Z      -0.0034
       Tot       0.0204
    Quadrupole Moments (Debye-Ang)
        XX     -67.9692     XY       0.3372     YY     -65.5350
        XZ       0.0003     YZ       0.0206     ZZ     -79.8439
    Octopole Moments (Debye-Ang^2)
       XXX      -0.8549    XXY      -0.1604    XYY       0.0032
       YYY      -0.2847    XXZ      -0.6231    XYZ       0.3161
       YYZ       0.0915    XZZ      -0.0259    YZZ      -0.1080
       ZZZ       0.3342
    Hexadecapole Moments (Debye-Ang^3)
      XXXX   -7998.5643   XXXY      45.1794   XXYY   -1342.8758
      XYYY       8.4295   YYYY    -205.7185   XXXZ       0.0424
      XXYZ       0.3742   XYYZ       0.0002   YYYZ      -0.0336
      XXZZ   -1605.0274   XYZZ       4.8627   YYZZ     -52.8816
      XZZZ       0.0105   YZZZ      -0.0671   ZZZZ     -82.6540
 -----------------------------------------------------------------
 Calculating analytic gradient of the SCF energy
 Gradient of SCF Energy
            1           2           3           4           5           6
    1   0.0020340   0.0055173  -0.0084194   0.0115877  -0.0127311   0.0133952
    2  -0.0029973   0.0076113  -0.0078214   0.0087128  -0.0081413   0.0082504
    3  -0.0000674   0.0000223  -0.0000256  -0.0000085  -0.0000151  -0.0000084
            7           8           9          10          11          12
    1  -0.0001625  -0.0007594   0.0003414   0.0005654   0.0007340  -0.0019788
    2   0.0008413   0.0008926  -0.0016382   0.0019874   0.0019718   0.0030461
    3   0.0000049   0.0000131  -0.0000045   0.0000166   0.0000301  -0.0000581
           13          14          15          16          17          18
    1  -0.0055836   0.0001323   0.0007510   0.0085312  -0.0116088  -0.0003364
    2  -0.0075514  -0.0008091  -0.0008897   0.0076943  -0.0086444   0.0016826
    3  -0.0000001   0.0000024   0.0000089  -0.0000007  -0.0000353   0.0000003
           19          20          21          22          23          24
    1   0.0128304  -0.0133425   0.0006967  -0.0007978   0.0007657  -0.0008216
    2   0.0079973  -0.0082905   0.0020347  -0.0019606   0.0019974  -0.0019833
    3   0.0000098  -0.0000327   0.0000262   0.0000248   0.0000353   0.0000306
           25          26
    1  -0.0006150  -0.0007251
    2  -0.0019757  -0.0020172
    3   0.0000106   0.0000204
 Max gradient component =       1.340E-02
 RMS gradient           =       4.914E-03
 Gradient time:  CPU 4.83 s  wall 1.21 s
 Geometry Optimization Parameters
   NAtoms,    NIC,     NZ,  NCons,   NDum,   NFix, NCnnct, MaxDiis
       26     157       0       0       0       0       0       0

 Cartesian Hessian Update
 Hessian Updated using BFGS Update


** GEOMETRY OPTIMIZATION IN DELOCALIZED INTERNAL COORDINATES **
   Searching for a Minimum

   Optimization Cycle:   2

                       Coordinates (Angstroms)
     ATOM                X               Y               Z
      1  C         6.8692273868   -0.2339679279   -0.0234560589
      2  C         5.6626927495    0.3996057727   -0.0085176194
      3  C         4.3679454361   -0.2908348904   -0.0042369909
      4  C         3.1539097274    0.3527015484    0.0076037349
      5  C         1.8601827384   -0.3285651507    0.0098797037
      6  C         0.6477300726    0.3219661132    0.0149995559
      7  H         7.8079051805    0.3250200670   -0.0264092560
      8  H         6.9404077568   -1.3244666124   -0.0330977268
      9  H         5.6330378491    1.4942791738    0.0006804369
     10  H         4.3983187097   -1.3849503161   -0.0118862827
     11  H         1.8829380896   -1.4229596726    0.0057921948
     12  C        -6.8644629085    0.2778734272   -0.0228086637
     13  C        -5.6684093943   -0.3754566434   -0.0096891050
     14  H        -7.8123791762   -0.2652842852   -0.0274172689
     15  H        -6.9176434767    1.3694562335   -0.0292458282
     16  C        -4.3634594993    0.2950347654   -0.0033669045
     17  C        -3.1577861088   -0.3643125447    0.0065949686
     18  H        -5.6565796459   -1.4704136825   -0.0037011912
     19  C        -1.8578388395    0.3046425114    0.0108588321
     20  C        -0.6486008673   -0.3519658679    0.0140189905
     21  H        -3.1449106175   -1.4589601901    0.0106453319
     22  H        -1.8731071916    1.3992707926    0.0100260054
     23  H        -0.6315616864   -1.4465077510    0.0143156730
     24  H         0.6272253813    1.4165620040    0.0185579439
     25  H        -4.3783523687    1.3895459456   -0.0078022148
     26  H         3.1279702223    1.4472053394    0.0148614307
   Point Group: c1    Number of degrees of freedom:    72


   Energy is   -465.294423041

 Hessian Updated using BFGS Update

 69 Hessian modes will be used to form the next step
  Hessian Eigenvalues:
     0.012094    0.012119    0.012140    0.012156    0.012216    0.021300
     0.021303    0.021311    0.021311    0.021318    0.021321    0.021345
     0.021359    0.021501    0.021515    0.030391    0.030398    0.030417
     0.030435    0.030994    0.030994    0.031028    0.031028    0.158779
     0.159999    0.159999    0.159999    0.160000    0.160000    0.160000
     0.160000    0.160000    0.160000    0.165048    0.217482    0.220000
     0.220000    0.220000    0.220000    0.220000    0.220000    0.220000
     0.220000    0.221446    0.320954    0.348120    0.348358    0.348554
     0.349012    0.350716    0.350744    0.350769    0.350783    0.350802
     0.350806    0.350822    0.351170    0.351886    0.352189    0.352683
     0.353032    0.353708    0.355913    0.572557    0.573144    0.573299
     0.577268    0.583512    0.622833

 Minimum Search - Taking Simple RFO Step
 Searching for Lamda that Minimizes Along All modes
 Value Taken    Lamda =  -0.00208154
 Step Taken.  Stepsize is  0.088093

                             Maximum     Tolerance    Cnvgd?
         Gradient           0.018144      0.000300      NO
         Displacement       0.070287      0.001200      NO
         Energy change     -0.016255      0.000001      NO


 New Cartesian Coordinates Obtained by Inverse Iteration

 Displacement from previous Coordinates is:  0.242074
 ----------------------------------------------------------------
             Standard Nuclear Orientation (Angstroms)
    I     Atom           X                Y                Z
 ----------------------------------------------------------------
    1      C       6.8481248914    -0.2428036657    -0.0050719869
    2      C       5.6390248557     0.3862023106    -0.0027735210
    3      C       4.3540719090    -0.2924329230    -0.0032843362
    4      C       3.1362995933     0.3489586774    -0.0015932615
    5      C       1.8576463150    -0.3190346000    -0.0022503130
    6      C       0.6392499536     0.3279938833    -0.0011116468
    7      H       7.7876507203     0.3146179142    -0.0045824752
    8      H       6.9268428116    -1.3347235456    -0.0074964076
    9      H       5.6054373716     1.4839047097    -0.0002647502
   10      H       4.3802450961    -1.3902515186    -0.0049797999
   11      H       1.8762028827    -1.4170618357    -0.0034221668
   12      C      -6.8462596013     0.2627588496    -0.0043584182
   13      C      -5.6409049251    -0.3734485586    -0.0039200132
   14      H      -7.7890793654    -0.2890912867    -0.0054235203
   15      H      -6.9186239997     1.3551216685    -0.0035861603
   16      C      -4.3521511988     0.2977794607    -0.0025470193
   17      C      -3.1375095008    -0.3496687340    -0.0026350842
   18      H      -5.6140979376    -1.4713298668    -0.0045705804
   19      C      -1.8564808595     0.3136381297    -0.0014322760
   20      C      -0.6393116490    -0.3357611675    -0.0020417243
   21      H      -3.1217565187    -1.4479470930    -0.0034247487
   22      H      -1.8719783195     1.4118007868     0.0004264096
   23      H      -0.6235153397    -1.4339146544    -0.0029569186
   24      H       0.6221176750     1.4262213683     0.0009914263
   25      H      -4.3722465565     1.3957768819    -0.0011569030
   26      H       3.1154012155     1.4472129680     0.0006658866
 ----------------------------------------------------------------
 Molecular Point Group                 C1    NOp =  1
 Largest Abelian Subgroup              C1    NOp =  1
 Nuclear Repulsion Energy =   528.1270773005 hartrees
 There are       43 alpha and       43 beta electrons
 Applying Cartesian multipole field
    Component          Value
    ---------          -----
     (2,0,0)        1.00000E-12
     (0,2,0)        2.00000E-10
     (0,0,2)       -3.00000E-10
 Nucleus-field energy     =     0.0000000288 hartrees
 Requested basis set is 6-31G
 There are 64 shells and 136 basis functions
 A cutoff of  1.0D-11 yielded   1246 shell pairs
 There are      6151 function pairs
 Smallest overlap matrix eigenvalue = 2.30E-03
 Guess MOs from SCF MO coefficient file

 -----------------------------------------------------------------------
  General SCF calculation program by
  Eric Jon Sundstrom, Paul Horn, Yuezhi Mao, Dmitri Zuev, Alec White,
  David Stuck, Shaama M.S., Shane Yost, Joonho Lee, David Small,
  Daniel Levine, Susi Lehtola, Hugh Burton, Evgeny Epifanovsky
 -----------------------------------------------------------------------
 Exchange:  B88      Correlation:  LYP
 Using SG-1 standard quadrature grid
 using 4 threads for integral computing
 -------------------------------------------------------
 OpenMP Integral computing Module                
 Release: version 1.0, May 2013, Q-Chem Inc. Pittsburgh 
 -------------------------------------------------------
 -------------------------------------------------------
 OpenMP BLAS3 based DFT computing Module                
 Release: version 1.0, May 2013, Q-Chem Inc. Pittsburgh 
 -------------------------------------------------------
 A restricted SCF calculation will be
 performed using DIIS
 SCF converges when DIIS error is below 1.0e-08
 ---------------------------------------
  Cycle       Energy         DIIS error
 ---------------------------------------
    1    -465.2947609781      3.90e-04  
    2    -465.2955599118      1.18e-04  
    3    -465.2953499747      2.79e-04  
    4    -465.2955933710      4.19e-05  
    5    -465.2955982677      2.26e-05  
    6    -465.2955996739      6.46e-06  
    7    -465.2955997757      2.23e-06  
    8    -465.2955997903      9.06e-07  
    9    -465.2955997932      2.35e-07  
   10    -465.2955997934      7.87e-08  
   11    -465.2955997934      2.67e-08  
   12    -465.2955997934      7.52e-09  Convergence criterion met
 ---------------------------------------
 SCF time:   CPU 23.88s  wall 6.00s 
 SCF   energy in the final basis set =     -465.2955997934
 Total energy in the final basis set =     -465.2955997934
 
 --------------------------------------------------------------
 
                    Orbital Energies (a.u.)
 --------------------------------------------------------------
 
 Alpha MOs
 -- Occupied --
 -9.927  -9.927  -9.927  -9.927  -9.927  -9.927  -9.927  -9.927
 -9.926  -9.926  -9.916  -9.916  -0.741  -0.729  -0.711  -0.686
 -0.657  -0.623  -0.570  -0.529  -0.501  -0.494  -0.490  -0.482
 -0.429  -0.419  -0.407  -0.391  -0.373  -0.362  -0.342  -0.337
 -0.324  -0.318  -0.308  -0.303  -0.300  -0.297  -0.288  -0.265
 -0.234  -0.197  -0.154
 -- Virtual --
 -0.089  -0.040   0.006   0.043   0.063   0.067   0.077   0.079
  0.100   0.101   0.103   0.120   0.121   0.129   0.135   0.140
  0.159   0.164   0.173   0.174   0.232   0.278   0.295   0.310
  0.323   0.344   0.353   0.357   0.369   0.372   0.376   0.463
  0.479   0.481   0.491   0.506   0.526   0.527   0.541   0.542
  0.553   0.574   0.592   0.592   0.592   0.596   0.600   0.609
  0.611   0.620   0.630   0.645   0.651   0.656   0.656   0.696
  0.701   0.761   0.771   0.789   0.808   0.821   0.834   0.839
  0.847   0.863   0.865   0.873   0.878   0.905   0.906   0.931
  0.935   0.974   0.981   1.024   1.029   1.044   1.068   1.075
  1.100   1.128   1.137   1.185   1.202   1.257   1.270   1.302
  1.315   1.321   1.396   1.472   1.473
 --------------------------------------------------------------
 
          Ground-State Mulliken Net Atomic Charges

     Atom                 Charge (a.u.)
  ----------------------------------------
      1 C                    -0.282340
      2 C                    -0.037534
      3 C                    -0.091529
      4 C                    -0.091622
      5 C                    -0.092231
      6 C                    -0.092797
      7 H                     0.109690
      8 H                     0.109091
      9 H                     0.095214
     10 H                     0.092958
     11 H                     0.093620
     12 C                    -0.282292
     13 C                    -0.037477
     14 H                     0.109718
     15 H                     0.109132
     16 C                    -0.091750
     17 C                    -0.091160
     18 H                     0.095256
     19 C                    -0.092812
     20 C                    -0.092121
     21 H                     0.093776
     22 H                     0.093602
     23 H                     0.093476
     24 H                     0.093431
     25 H                     0.092976
     26 H                     0.093724
  ----------------------------------------
  Sum of atomic charges =    -0.000000

 -----------------------------------------------------------------
                    Cartesian Multipole Moments
 -----------------------------------------------------------------
    Charge (ESU x 10^10)
                -0.0000
    Dipole Moment (Debye)
         X      -0.0071      Y      -0.0011      Z       0.0018
       Tot       0.0074
    Quadrupole Moments (Debye-Ang)
        XX     -68.0234     XY       0.2859     YY     -65.7043
        XZ       0.0001     YZ       0.0198     ZZ     -79.7673
    Octopole Moments (Debye-Ang^2)
       XXX      -0.3222    XXY      -0.1850    XYY      -0.0078
       YYY      -0.4615    XXZ       0.1458    XYZ       0.0282
       YYZ       0.1882    XZZ      -0.0180    YZZ      -0.1846
       ZZZ       0.6663
    Hexadecapole Moments (Debye-Ang^3)
      XXXX   -7940.1233   XXXY      42.8563   XXYY   -1336.4738
      XYYY      10.6434   YYYY    -205.5348   XXXZ       0.0184
      XXYZ       0.3697   XYYZ      -0.0075   YYYZ      -0.0640
      XXZZ   -1593.3304   XYZZ       5.8575   YYZZ     -52.7599
      XZZZ       0.0041   YZZZ      -0.1037   ZZZZ     -82.4166
 -----------------------------------------------------------------
 Calculating analytic gradient of the SCF energy
 Gradient of SCF Energy
            1           2           3           4           5           6
    1   0.0004992   0.0007149  -0.0023721   0.0027577  -0.0035260   0.0036942
    2  -0.0008174   0.0007245  -0.0004829   0.0006741  -0.0005214   0.0005219
    3  -0.0000088  -0.0000086  -0.0000193  -0.0000291  -0.0000336  -0.0000357
            7           8           9          10          11          12
    1   0.0001828  -0.0000479  -0.0006066   0.0007958   0.0009333  -0.0004839
    2   0.0002070  -0.0001671  -0.0000200   0.0000641   0.0000808   0.0008325
    3  -0.0000007   0.0000028   0.0000125   0.0000215   0.0000353  -0.0000082
           13          14          15          16          17          18
    1  -0.0006887  -0.0001904   0.0000434   0.0023449  -0.0027105   0.0005765
    2  -0.0007227  -0.0002028   0.0001659   0.0004592  -0.0006998   0.0000206
    3  -0.0000105  -0.0000009   0.0000046  -0.0000189  -0.0000317   0.0000123
           19          20          21          22          23          24
    1   0.0035259  -0.0036625   0.0008624  -0.0009368   0.0009516  -0.0009770
    2   0.0004764  -0.0005647   0.0001195  -0.0000439   0.0000960  -0.0000607
    3  -0.0000315  -0.0000389   0.0000279   0.0000356   0.0000374   0.0000372
           25          26
    1  -0.0007808  -0.0008995
    2  -0.0000400  -0.0000991
    3   0.0000222   0.0000274
 Max gradient component =       3.694E-03
 RMS gradient           =       1.085E-03
 Gradient time:  CPU 4.42 s  wall 1.11 s
 Geometry Optimization Parameters
   NAtoms,    NIC,     NZ,  NCons,   NDum,   NFix, NCnnct, MaxDiis
       26     157       0       0       0       0       0       0

 Cartesian Hessian Update
 Hessian Updated using BFGS Update


** GEOMETRY OPTIMIZATION IN DELOCALIZED INTERNAL COORDINATES **
   Searching for a Minimum

   Optimization Cycle:   3

                       Coordinates (Angstroms)
     ATOM                X               Y               Z
      1  C         6.8481248914   -0.2428036657   -0.0050719869
      2  C         5.6390248557    0.3862023106   -0.0027735210
      3  C         4.3540719090   -0.2924329230   -0.0032843362
      4  C         3.1362995933    0.3489586774   -0.0015932615
      5  C         1.8576463150   -0.3190346000   -0.0022503130
      6  C         0.6392499536    0.3279938833   -0.0011116468
      7  H         7.7876507203    0.3146179142   -0.0045824752
      8  H         6.9268428116   -1.3347235456   -0.0074964076
      9  H         5.6054373716    1.4839047097   -0.0002647502
     10  H         4.3802450961   -1.3902515186   -0.0049797999
     11  H         1.8762028827   -1.4170618357   -0.0034221668
     12  C        -6.8462596013    0.2627588496   -0.0043584182
     13  C        -5.6409049251   -0.3734485586   -0.0039200132
     14  H        -7.7890793654   -0.2890912867   -0.0054235203
     15  H        -6.9186239997    1.3551216685   -0.0035861603
     16  C        -4.3521511988    0.2977794607   -0.0025470193
     17  C        -3.1375095008   -0.3496687340   -0.0026350842
     18  H        -5.6140979376   -1.4713298668   -0.0045705804
     19  C        -1.8564808595    0.3136381297   -0.0014322760
     20  C        -0.6393116490   -0.3357611675   -0.0020417243
     21  H        -3.1217565187   -1.4479470930   -0.0034247487
     22  H        -1.8719783195    1.4118007868    0.0004264096
     23  H        -0.6235153397   -1.4339146544   -0.0029569186
     24  H         0.6221176750    1.4262213683    0.0009914263
     25  H        -4.3722465565    1.3957768819   -0.0011569030
     26  H         3.1154012155    1.4472129680    0.0006658866
   Point Group: c1    Number of degrees of freedom:    72


   Energy is   -465.295599793

 Hessian Updated using BFGS Update

 63 Hessian modes will be used to form the next step
  Hessian Eigenvalues:
     0.012094    0.012119    0.012141    0.012156    0.012215    0.021300
     0.021305    0.021311    0.021313    0.021319    0.021324    0.021346
     0.021360    0.021501    0.021515    0.030391    0.030397    0.030416
     0.030435    0.030994    0.030994    0.031028    0.031028    0.140779
     0.159999    0.159999    0.160000    0.160090    0.163364    0.217461
     0.220000    0.220000    0.220000    0.220000    0.220000    0.220000
     0.220109    0.225091    0.319540    0.348120    0.348381    0.348615
     0.349076    0.350719    0.350744    0.350769    0.350786    0.350802
     0.350808    0.350827    0.351024    0.351872    0.352125    0.352654
     0.352967    0.353701    0.354368    0.572590    0.573141    0.573330
     0.578779    0.583518    0.623289

 Minimum Search - Taking Simple RFO Step
 Searching for Lamda that Minimizes Along All modes
 Value Taken    Lamda =  -0.00015187
 Step Taken.  Stepsize is  0.031989

                             Maximum     Tolerance    Cnvgd?
         Gradient           0.003143      0.000300      NO
         Displacement       0.020457      0.001200      NO
         Energy change     -0.001177      0.000001      NO


 New Cartesian Coordinates Obtained by Inverse Iteration

 Displacement from previous Coordinates is:  0.061456
 ----------------------------------------------------------------
             Standard Nuclear Orientation (Angstroms)
    I     Atom           X                Y                Z
 ----------------------------------------------------------------
    1      C       6.8479266159    -0.2452251164    -0.0033527030
    2      C       5.6387908837     0.3822907039    -0.0024752425
    3      C       4.3548438586    -0.2939827376    -0.0030087810
    4      C       3.1362539303     0.3480434121    -0.0022368870
    5      C       1.8587174123    -0.3157820702    -0.0029200870
    6      C       0.6383741116     0.3315376114    -0.0020991223
    7      H       7.7872085830     0.3118654810    -0.0029297168
    8      H       6.9281116651    -1.3369428639    -0.0045664206
    9      H       5.6095949260     1.4803829520    -0.0013092908
   10      H       4.3739393449    -1.3923003724    -0.0041769534
   11      H       1.8687316925    -1.4143052301    -0.0043010062
   12      C      -6.8472533741     0.2544666559    -0.0026550651
   13      C      -5.6389674736    -0.3747043794    -0.0035975992
   14      H      -7.7872500965    -0.3014259637    -0.0038215427
   15      H      -6.9260853501     1.3462798055    -0.0007104864
   16      C      -4.3541061532     0.2997196238    -0.0022347441
   17      C      -3.1362996407    -0.3438716205    -0.0032444022
   18      H      -5.6114251756    -1.4728411803    -0.0055876051
   19      C      -1.8581619712     0.3187106784    -0.0020812379
   20      C      -0.6381373669    -0.3292461220    -0.0030158335
   21      H      -3.1253420557    -1.4426698662    -0.0051785313
   22      H      -1.8673172933     1.4172711561    -0.0004248658
   23      H      -0.6297009372    -1.4278967498    -0.0047006234
   24      H       0.6296089427     1.4302181722    -0.0007506865
   25      H      -4.3716163871     1.3980788381    -0.0003211680
   26      H       3.1239608281     1.4468473414    -0.0010997069
 ----------------------------------------------------------------
 Molecular Point Group                 C1    NOp =  1
 Largest Abelian Subgroup              C1    NOp =  1
 Nuclear Repulsion Energy =   528.2099733520 hartrees
 There are       43 alpha and       43 beta electrons
 Applying Cartesian multipole field
    Component          Value
    ---------          -----
     (2,0,0)        1.00000E-12
     (0,2,0)        2.00000E-10
     (0,0,2)       -3.00000E-10
 Nucleus-field energy     =     0.0000000287 hartrees
 Requested basis set is 6-31G
 There are 64 shells and 136 basis functions
 A cutoff of  1.0D-11 yielded   1246 shell pairs
 There are      6151 function pairs
 Smallest overlap matrix eigenvalue = 2.30E-03
 Guess MOs from SCF MO coefficient file

 -----------------------------------------------------------------------
  General SCF calculation program by
  Eric Jon Sundstrom, Paul Horn, Yuezhi Mao, Dmitri Zuev, Alec White,
  David Stuck, Shaama M.S., Shane Yost, Joonho Lee, David Small,
  Daniel Levine, Susi Lehtola, Hugh Burton, Evgeny Epifanovsky
 -----------------------------------------------------------------------
 Exchange:  B88      Correlation:  LYP
 Using SG-1 standard quadrature grid
 using 4 threads for integral computing
 -------------------------------------------------------
 OpenMP Integral computing Module                
 Release: version 1.0, May 2013, Q-Chem Inc. Pittsburgh 
 -------------------------------------------------------
 -------------------------------------------------------
 OpenMP BLAS3 based DFT computing Module                
 Release: version 1.0, May 2013, Q-Chem Inc. Pittsburgh 
 -------------------------------------------------------
 A restricted SCF calculation will be
 performed using DIIS
 SCF converges when DIIS error is below 1.0e-08
 ---------------------------------------
  Cycle       Energy         DIIS error
 ---------------------------------------
    1    -465.2956330269      1.02e-04  
    2    -465.2956814738      1.96e-05  
    3    -465.2956775464      4.18e-05  
    4    -465.2956820585      1.13e-05  
    5    -465.2956824690      3.30e-06  
    6    -465.2956824966      2.01e-06  
    7    -465.2956825084      5.72e-07  
    8    -465.2956825095      1.30e-07  
    9    -465.2956825096      4.84e-08  
   10    -465.2956825096      2.24e-08  
   11    -465.2956825096      4.21e-09  Convergence criterion met
 ---------------------------------------
 SCF time:   CPU 21.27s  wall 5.00s 
 SCF   energy in the final basis set =     -465.2956825096
 Total energy in the final basis set =     -465.2956825096
 
 --------------------------------------------------------------
 
                    Orbital Energies (a.u.)
 --------------------------------------------------------------
 
 Alpha MOs
 -- Occupied --
 -9.927  -9.927  -9.927  -9.927  -9.927  -9.927  -9.927  -9.927
 -9.926  -9.926  -9.916  -9.916  -0.741  -0.729  -0.711  -0.687
 -0.657  -0.623  -0.571  -0.529  -0.501  -0.494  -0.490  -0.482
 -0.429  -0.419  -0.407  -0.391  -0.374  -0.362  -0.342  -0.337
 -0.323  -0.318  -0.307  -0.303  -0.301  -0.298  -0.288  -0.265
 -0.235  -0.197  -0.154
 -- Virtual --
 -0.089  -0.040   0.006   0.044   0.063   0.068   0.078   0.079
  0.099   0.101   0.103   0.120   0.121   0.129   0.135   0.140
  0.158   0.165   0.173   0.174   0.232   0.278   0.296   0.309
  0.324   0.345   0.353   0.358   0.369   0.371   0.376   0.463
  0.479   0.481   0.491   0.506   0.526   0.528   0.541   0.543
  0.553   0.574   0.592   0.592   0.592   0.596   0.599   0.610
  0.611   0.619   0.631   0.645   0.651   0.656   0.657   0.697
  0.701   0.761   0.771   0.789   0.808   0.821   0.834   0.839
  0.846   0.863   0.864   0.874   0.877   0.905   0.906   0.931
  0.935   0.974   0.981   1.024   1.029   1.044   1.069   1.074
  1.099   1.128   1.135   1.189   1.199   1.256   1.273   1.302
  1.315   1.322   1.397   1.472   1.474
 --------------------------------------------------------------
 
          Ground-State Mulliken Net Atomic Charges

     Atom                 Charge (a.u.)
  ----------------------------------------
      1 C                    -0.281888
      2 C                    -0.038238
      3 C                    -0.090698
      4 C                    -0.091937
      5 C                    -0.092212
      6 C                    -0.092577
      7 H                     0.109696
      8 H                     0.109076
      9 H                     0.095259
     10 H                     0.092922
     11 H                     0.093520
     12 C                    -0.281868
     13 C                    -0.038251
     14 H                     0.109698
     15 H                     0.109087
     16 C                    -0.090730
     17 C                    -0.091828
     18 H                     0.095266
     19 C                    -0.092364
     20 C                    -0.092394
     21 H                     0.093659
     22 H                     0.093516
     23 H                     0.093363
     24 H                     0.093351
     25 H                     0.092928
     26 H                     0.093645
  ----------------------------------------
  Sum of atomic charges =    -0.000000

 -----------------------------------------------------------------
                    Cartesian Multipole Moments
 -----------------------------------------------------------------
    Charge (ESU x 10^10)
                -0.0000
    Dipole Moment (Debye)
         X      -0.0015      Y      -0.0003      Z      -0.0005
       Tot       0.0016
    Quadrupole Moments (Debye-Ang)
        XX     -67.9256     XY       0.3554     YY     -65.7379
        XZ       0.0005     YZ       0.0197     ZZ     -79.7577
    Octopole Moments (Debye-Ang^2)
       XXX      -0.0951    XXY      -0.1922    XYY      -0.0086
       YYY      -0.5404    XXZ       0.1667    XYZ      -0.0196
       YYZ       0.1809    XZZ      -0.0146    YZZ      -0.2182
       ZZZ       0.6601
    Hexadecapole Moments (Debye-Ang^3)
      XXXX   -7934.2566   XXXY      45.1461   XXYY   -1336.7686
      XYYY      10.8014   YYYY    -205.3508   XXXZ       0.0460
      XXYZ       0.3677   XYYZ      -0.0061   YYYZ      -0.0647
      XXZZ   -1593.1064   XYZZ       5.8694   YYZZ     -52.7079
      XZZZ       0.0088   YZZZ      -0.1045   ZZZZ     -82.3987
 -----------------------------------------------------------------
 Calculating analytic gradient of the SCF energy
 Gradient of SCF Energy
            1           2           3           4           5           6
    1  -0.0000818   0.0001494  -0.0003381   0.0004175  -0.0005293   0.0005791
    2   0.0001346  -0.0003578   0.0005582  -0.0005178   0.0005425  -0.0005625
    3   0.0000012  -0.0000003   0.0000038   0.0000008   0.0000054   0.0000030
            7           8           9          10          11          12
    1   0.0000499  -0.0000038  -0.0001143   0.0001004   0.0001329   0.0000858
    2  -0.0000425  -0.0000527   0.0000921  -0.0001185  -0.0000815  -0.0001283
    3  -0.0000007  -0.0000011  -0.0000009  -0.0000006  -0.0000034   0.0000012
           13          14          15          16          17          18
    1  -0.0001232  -0.0000503  -0.0000031   0.0003016  -0.0003825   0.0001041
    2   0.0003702   0.0000398   0.0000516  -0.0005666   0.0005065  -0.0000932
    3   0.0000011  -0.0000009  -0.0000008   0.0000022   0.0000025  -0.0000020
           19          20          21          22          23          24
    1   0.0005082  -0.0005686   0.0001080  -0.0001294   0.0001355  -0.0001390
    2  -0.0005598   0.0005429  -0.0000762   0.0000950  -0.0000747   0.0000884
    3   0.0000037   0.0000049  -0.0000043  -0.0000028  -0.0000048  -0.0000040
           25          26
    1  -0.0000925  -0.0001165
    2   0.0001263   0.0000841
    3   0.0000000  -0.0000033
 Max gradient component =       5.791E-04
 RMS gradient           =       2.453E-04
 Gradient time:  CPU 4.47 s  wall 1.12 s
 Geometry Optimization Parameters
   NAtoms,    NIC,     NZ,  NCons,   NDum,   NFix, NCnnct, MaxDiis
       26     157       0       0       0       0       0       0

 Cartesian Hessian Update
 Hessian Updated using BFGS Update


** GEOMETRY OPTIMIZATION IN DELOCALIZED INTERNAL COORDINATES **
   Searching for a Minimum

   Optimization Cycle:   4

                       Coordinates (Angstroms)
     ATOM                X               Y               Z
      1  C         6.8479266159   -0.2452251164   -0.0033527030
      2  C         5.6387908837    0.3822907039   -0.0024752425
      3  C         4.3548438586   -0.2939827376   -0.0030087810
      4  C         3.1362539303    0.3480434121   -0.0022368870
      5  C         1.8587174123   -0.3157820702   -0.0029200870
      6  C         0.6383741116    0.3315376114   -0.0020991223
      7  H         7.7872085830    0.3118654810   -0.0029297168
      8  H         6.9281116651   -1.3369428639   -0.0045664206
      9  H         5.6095949260    1.4803829520   -0.0013092908
     10  H         4.3739393449   -1.3923003724   -0.0041769534
     11  H         1.8687316925   -1.4143052301   -0.0043010062
     12  C        -6.8472533741    0.2544666559   -0.0026550651
     13  C        -5.6389674736   -0.3747043794   -0.0035975992
     14  H        -7.7872500965   -0.3014259637   -0.0038215427
     15  H        -6.9260853501    1.3462798055   -0.0007104864
     16  C        -4.3541061532    0.2997196238   -0.0022347441
     17  C        -3.1362996407   -0.3438716205   -0.0032444022
     18  H        -5.6114251756   -1.4728411803   -0.0055876051
     19  C        -1.8581619712    0.3187106784   -0.0020812379
     20  C        -0.6381373669   -0.3292461220   -0.0030158335
     21  H        -3.1253420557   -1.4426698662   -0.0051785313
     22  H        -1.8673172933    1.4172711561   -0.0004248658
     23  H        -0.6297009372   -1.4278967498   -0.0047006234
     24  H         0.6296089427    1.4302181722   -0.0007506865
     25  H        -4.3716163871    1.3980788381   -0.0003211680
     26  H         3.1239608281    1.4468473414   -0.0010997069
   Point Group: c1    Number of degrees of freedom:    72


   Energy is   -465.295682510

 Hessian Updated using BFGS Update

 70 Hessian modes will be used to form the next step
  Hessian Eigenvalues:
     0.012096    0.012121    0.012142    0.012156    0.012216    0.021300
     0.021305    0.021311    0.021313    0.021319    0.021328    0.021346
     0.021360    0.021501    0.021515    0.030390    0.030395    0.030415
     0.030434    0.030994    0.030994    0.031028    0.031029    0.129017
     0.159999    0.159999    0.159999    0.160000    0.160000    0.160000
     0.160000    0.160000    0.160015    0.160419    0.161022    0.217876
     0.219997    0.220000    0.220000    0.220000    0.220000    0.220000
     0.220000    0.220293    0.228503    0.319420    0.348120    0.348381
     0.348628    0.349114    0.350557    0.350740    0.350747    0.350769
     0.350799    0.350804    0.350821    0.350846    0.351809    0.351985
     0.352608    0.352871    0.353690    0.353998    0.568463    0.573129
     0.573199    0.574965    0.583511    0.627525

 Minimum Search - Taking Simple RFO Step
 Searching for Lamda that Minimizes Along All modes
 Value Taken    Lamda =  -0.00000503
 Step Taken.  Stepsize is  0.005270

                             Maximum     Tolerance    Cnvgd?
         Gradient           0.000943      0.000300      NO
         Displacement       0.004124      0.001200      NO
         Energy change     -0.000083      0.000001      NO


 New Cartesian Coordinates Obtained by Inverse Iteration

 Displacement from previous Coordinates is:  0.016287
 ----------------------------------------------------------------
             Standard Nuclear Orientation (Angstroms)
    I     Atom           X                Y                Z
 ----------------------------------------------------------------
    1      C       6.8479551919    -0.2457358074    -0.0028533336
    2      C       5.6385747966     0.3814285011    -0.0021183955
    3      C       4.3547721101    -0.2952304105    -0.0032012416
    4      C       3.1362399182     0.3476895321    -0.0024395285
    5      C       1.8586369179    -0.3157933632    -0.0034503458
    6      C       0.6383499045     0.3326730277    -0.0026195977
    7      H       7.7867320045     0.3121310208    -0.0019558907
    8      H       6.9288968011    -1.3373259366    -0.0043753758
    9      H       5.6099489003     1.4794047361    -0.0005717403
   10      H       4.3728166839    -1.3933980487    -0.0047050582
   11      H       1.8669392451    -1.4142253229    -0.0049399124
   12      C      -6.8475295565     0.2525093443    -0.0021537754
   13      C      -5.6383836464    -0.3751172290    -0.0032474108
   14      H      -7.7864988563    -0.3050381777    -0.0028353056
   15      H      -6.9281109299     1.3441245130    -0.0005099787
   16      C      -4.3543136081     0.3009894238    -0.0024358233
   17      C      -3.1360167254    -0.3424121588    -0.0034570453
   18      H      -5.6102398252    -1.4731085439    -0.0048505359
   19      C      -1.8582280895     0.3206808460    -0.0026186475
   20      C      -0.6380394114    -0.3279877947    -0.0035399553
   21      H      -3.1256321423    -1.4411213698    -0.0049829805
   22      H      -1.8662508343     1.4191219463    -0.0010732572
   23      H      -0.6310393327    -1.4265554467    -0.0050274433
   24      H       0.6312480170     1.4312480335    -0.0010794752
   25      H      -4.3718660714     1.3991678823    -0.0008570232
   26      H       3.1254380578     1.4463989622    -0.0009012316
 ----------------------------------------------------------------
 Molecular Point Group                 C1    NOp =  1
 Largest Abelian Subgroup              C1    NOp =  1
 Nuclear Repulsion Energy =   528.1981798443 hartrees
 There are       43 alpha and       43 beta electrons
 Applying Cartesian multipole field
    Component          Value
    ---------          -----
     (2,0,0)        1.00000E-12
     (0,2,0)        2.00000E-10
     (0,0,2)       -3.00000E-10
 Nucleus-field energy     =     0.0000000287 hartrees
 Requested basis set is 6-31G
 There are 64 shells and 136 basis functions
 A cutoff of  1.0D-11 yielded   1246 shell pairs
 There are      6151 function pairs
 Smallest overlap matrix eigenvalue = 2.30E-03
 Guess MOs from SCF MO coefficient file

 -----------------------------------------------------------------------
  General SCF calculation program by
  Eric Jon Sundstrom, Paul Horn, Yuezhi Mao, Dmitri Zuev, Alec White,
  David Stuck, Shaama M.S., Shane Yost, Joonho Lee, David Small,
  Daniel Levine, Susi Lehtola, Hugh Burton, Evgeny Epifanovsky
 -----------------------------------------------------------------------
 Exchange:  B88      Correlation:  LYP
 Using SG-1 standard quadrature grid
 using 4 threads for integral computing
 -------------------------------------------------------
 OpenMP Integral computing Module                
 Release: version 1.0, May 2013, Q-Chem Inc. Pittsburgh 
 -------------------------------------------------------
 -------------------------------------------------------
 OpenMP BLAS3 based DFT computing Module                
 Release: version 1.0, May 2013, Q-Chem Inc. Pittsburgh 
 -------------------------------------------------------
 A restricted SCF calculation will be
 performed using DIIS
 SCF converges when DIIS error is below 1.0e-08
 ---------------------------------------
  Cycle       Energy         DIIS error
 ---------------------------------------
    1    -465.2956829935      2.32e-05  
    2    -465.2956854422      2.61e-06  
    3    -465.2956853384      5.96e-06  
    4    -465.2956854505      1.96e-06  
    5    -465.2956854628      4.46e-07  
    6    -465.2956854630      3.40e-07  
    7    -465.2956854634      9.29e-08  
    8    -465.2956854634      2.47e-08  
    9    -465.2956854634      7.01e-09  Convergence criterion met
 ---------------------------------------
 SCF time:   CPU 17.98s  wall 5.00s 
 SCF   energy in the final basis set =     -465.2956854634
 Total energy in the final basis set =     -465.2956854634
 
 --------------------------------------------------------------
 
                    Orbital Energies (a.u.)
 --------------------------------------------------------------
 
 Alpha MOs
 -- Occupied --
 -9.927  -9.927  -9.927  -9.927  -9.927  -9.927  -9.927  -9.927
 -9.926  -9.926  -9.916  -9.916  -0.741  -0.729  -0.711  -0.687
 -0.657  -0.623  -0.571  -0.529  -0.501  -0.494  -0.490  -0.482
 -0.429  -0.419  -0.407  -0.391  -0.374  -0.362  -0.342  -0.337
 -0.323  -0.318  -0.308  -0.303  -0.301  -0.298  -0.288  -0.265
 -0.235  -0.197  -0.154
 -- Virtual --
 -0.089  -0.040   0.006   0.043   0.063   0.067   0.078   0.079
  0.099   0.101   0.103   0.120   0.121   0.129   0.135   0.140
  0.158   0.165   0.173   0.174   0.232   0.278   0.296   0.309
  0.324   0.345   0.353   0.358   0.369   0.371   0.376   0.464
  0.479   0.481   0.491   0.506   0.526   0.528   0.541   0.543
  0.553   0.574   0.592   0.592   0.592   0.596   0.599   0.610
  0.611   0.619   0.631   0.645   0.651   0.656   0.657   0.697
  0.701   0.761   0.771   0.790   0.808   0.821   0.834   0.839
  0.846   0.863   0.864   0.874   0.877   0.905   0.906   0.931
  0.935   0.974   0.981   1.024   1.029   1.044   1.069   1.074
  1.099   1.128   1.135   1.190   1.199   1.256   1.273   1.301
  1.315   1.321   1.397   1.472   1.474
 --------------------------------------------------------------
 
          Ground-State Mulliken Net Atomic Charges

     Atom                 Charge (a.u.)
  ----------------------------------------
      1 C                    -0.281770
      2 C                    -0.038470
      3 C                    -0.090494
      4 C                    -0.092062
      5 C                    -0.092203
      6 C                    -0.092545
      7 H                     0.109632
      8 H                     0.109073
      9 H                     0.095263
     10 H                     0.092957
     11 H                     0.093540
     12 C                    -0.281762
     13 C                    -0.038480
     14 H                     0.109633
     15 H                     0.109076
     16 C                    -0.090498
     17 C                    -0.092030
     18 H                     0.095265
     19 C                    -0.092250
     20 C                    -0.092486
     21 H                     0.093673
     22 H                     0.093539
     23 H                     0.093387
     24 H                     0.093383
     25 H                     0.092959
     26 H                     0.093669
  ----------------------------------------
  Sum of atomic charges =    -0.000000

 -----------------------------------------------------------------
                    Cartesian Multipole Moments
 -----------------------------------------------------------------
    Charge (ESU x 10^10)
                -0.0000
    Dipole Moment (Debye)
         X      -0.0004      Y      -0.0001      Z       0.0002
       Tot       0.0005
    Quadrupole Moments (Debye-Ang)
        XX     -67.9536     XY       0.3672     YY     -65.7273
        XZ       0.0004     YZ       0.0197     ZZ     -79.7602
    Octopole Moments (Debye-Ang^2)
       XXX      -0.0499    XXY      -0.1942    XYY      -0.0088
       YYY      -0.5580    XXZ       0.2067    XYZ      -0.0024
       YYZ       0.1866    XZZ      -0.0137    YZZ      -0.2257
       ZZZ       0.6774
    Hexadecapole Moments (Debye-Ang^3)
      XXXX   -7936.2795   XXXY      45.7356   XXYY   -1336.5355
      XYYY      10.9384   YYYY    -205.3142   XXXZ       0.0372
      XXYZ       0.3683   XYYZ      -0.0066   YYYZ      -0.0646
      XXZZ   -1593.1165   XYZZ       5.9218   YYZZ     -52.7054
      XZZZ       0.0071   YZZZ      -0.1044   ZZZZ     -82.4051
 -----------------------------------------------------------------
 Calculating analytic gradient of the SCF energy
 Gradient of SCF Energy
            1           2           3           4           5           6
    1  -0.0000519   0.0000521  -0.0000698   0.0000778  -0.0001089   0.0001099
    2   0.0000778  -0.0000942   0.0001605  -0.0001567   0.0001674  -0.0001725
    3  -0.0000004  -0.0000006  -0.0000009  -0.0000015  -0.0000017  -0.0000020
            7           8           9          10          11          12
    1   0.0000030   0.0000052  -0.0000030  -0.0000010   0.0000063   0.0000516
    2  -0.0000271  -0.0000157   0.0000229  -0.0000425  -0.0000388  -0.0000750
    3   0.0000001   0.0000005   0.0000010   0.0000008   0.0000012  -0.0000007
           13          14          15          16          17          18
    1  -0.0000400  -0.0000032  -0.0000080   0.0000525  -0.0000626  -0.0000002
    2   0.0001006   0.0000256   0.0000149  -0.0001620   0.0001531  -0.0000239
    3  -0.0000008   0.0000001   0.0000010  -0.0000013  -0.0000012   0.0000006
           19          20          21          22          23          24
    1   0.0000990  -0.0001051  -0.0000013  -0.0000043   0.0000046  -0.0000055
    2  -0.0001710   0.0001668  -0.0000346   0.0000415  -0.0000377   0.0000407
    3  -0.0000022  -0.0000017   0.0000012   0.0000018   0.0000015   0.0000021
           25          26
    1   0.0000045  -0.0000015
    2   0.0000437   0.0000362
    3   0.0000014   0.0000017
 Max gradient component =       1.725E-04
 RMS gradient           =       6.536E-05
 Gradient time:  CPU 4.44 s  wall 1.11 s
 Geometry Optimization Parameters
   NAtoms,    NIC,     NZ,  NCons,   NDum,   NFix, NCnnct, MaxDiis
       26     157       0       0       0       0       0       0

 Cartesian Hessian Update
 Hessian Updated using BFGS Update


** GEOMETRY OPTIMIZATION IN DELOCALIZED INTERNAL COORDINATES **
   Searching for a Minimum

   Optimization Cycle:   5

                       Coordinates (Angstroms)
     ATOM                X               Y               Z
      1  C         6.8479551919   -0.2457358074   -0.0028533336
      2  C         5.6385747966    0.3814285011   -0.0021183955
      3  C         4.3547721101   -0.2952304105   -0.0032012416
      4  C         3.1362399182    0.3476895321   -0.0024395285
      5  C         1.8586369179   -0.3157933632   -0.0034503458
      6  C         0.6383499045    0.3326730277   -0.0026195977
      7  H         7.7867320045    0.3121310208   -0.0019558907
      8  H         6.9288968011   -1.3373259366   -0.0043753758
      9  H         5.6099489003    1.4794047361   -0.0005717403
     10  H         4.3728166839   -1.3933980487   -0.0047050582
     11  H         1.8669392451   -1.4142253229   -0.0049399124
     12  C        -6.8475295565    0.2525093443   -0.0021537754
     13  C        -5.6383836464   -0.3751172290   -0.0032474108
     14  H        -7.7864988563   -0.3050381777   -0.0028353056
     15  H        -6.9281109299    1.3441245130   -0.0005099787
     16  C        -4.3543136081    0.3009894238   -0.0024358233
     17  C        -3.1360167254   -0.3424121588   -0.0034570453
     18  H        -5.6102398252   -1.4731085439   -0.0048505359
     19  C        -1.8582280895    0.3206808460   -0.0026186475
     20  C        -0.6380394114   -0.3279877947   -0.0035399553
     21  H        -3.1256321423   -1.4411213698   -0.0049829805
     22  H        -1.8662508343    1.4191219463   -0.0010732572
     23  H        -0.6310393327   -1.4265554467   -0.0050274433
     24  H         0.6312480170    1.4312480335   -0.0010794752
     25  H        -4.3718660714    1.3991678823   -0.0008570232
     26  H         3.1254380578    1.4463989622   -0.0009012316
   Point Group: c1    Number of degrees of freedom:    72


   Energy is   -465.295685463

 Hessian Updated using BFGS Update

 61 Hessian modes will be used to form the next step
  Hessian Eigenvalues:
     0.012095    0.012122    0.012142    0.012156    0.012216    0.021301
     0.021306    0.021311    0.021314    0.021319    0.021341    0.021354
     0.021382    0.021502    0.021517    0.030390    0.030397    0.030416
     0.030434    0.030994    0.030995    0.031028    0.031029    0.130889
     0.157130    0.160000    0.160000    0.160000    0.160041    0.160193
     0.161603    0.202284    0.219187    0.220015    0.220273    0.221165
     0.319105    0.342234    0.348123    0.348407    0.348770    0.349690
     0.350743    0.350760    0.350770    0.350794    0.350803    0.350810
     0.351011    0.351845    0.351997    0.352610    0.352868    0.353702
     0.354429    0.553286    0.573111    0.573213    0.574411    0.583510
     0.608668

 Minimum Search - Taking Simple RFO Step
 Searching for Lamda that Minimizes Along All modes
 Value Taken    Lamda =   0.00000000
 Step Taken.  Stepsize is  0.001281

                             Maximum     Tolerance    Cnvgd?
         Gradient           0.000225      0.000300     YES
         Displacement       0.000904      0.001200     YES
         Energy change     -0.000003      0.000001      NO

 Final energy is   -465.295685463436     


 ******************************
 **  OPTIMIZATION CONVERGED  **
 ******************************

                       Coordinates (Angstroms)
     ATOM                X               Y               Z
      1  C         6.8479551919   -0.2457358074   -0.0028533336
      2  C         5.6385747966    0.3814285011   -0.0021183955
      3  C         4.3547721101   -0.2952304105   -0.0032012416
      4  C         3.1362399182    0.3476895321   -0.0024395285
      5  C         1.8586369179   -0.3157933632   -0.0034503458
      6  C         0.6383499045    0.3326730277   -0.0026195977
      7  H         7.7867320045    0.3121310208   -0.0019558907
      8  H         6.9288968011   -1.3373259366   -0.0043753758
      9  H         5.6099489003    1.4794047361   -0.0005717403
     10  H         4.3728166839   -1.3933980487   -0.0047050582
     11  H         1.8669392451   -1.4142253229   -0.0049399124
     12  C        -6.8475295565    0.2525093443   -0.0021537754
     13  C        -5.6383836464   -0.3751172290   -0.0032474108
     14  H        -7.7864988563   -0.3050381777   -0.0028353056
     15  H        -6.9281109299    1.3441245130   -0.0005099787
     16  C        -4.3543136081    0.3009894238   -0.0024358233
     17  C        -3.1360167254   -0.3424121588   -0.0034570453
     18  H        -5.6102398252   -1.4731085439   -0.0048505359
     19  C        -1.8582280895    0.3206808460   -0.0026186475
     20  C        -0.6380394114   -0.3279877947   -0.0035399553
     21  H        -3.1256321423   -1.4411213698   -0.0049829805
     22  H        -1.8662508343    1.4191219463   -0.0010732572
     23  H        -0.6310393327   -1.4265554467   -0.0050274433
     24  H         0.6312480170    1.4312480335   -0.0010794752
     25  H        -4.3718660714    1.3991678823   -0.0008570232
     26  H         3.1254380578    1.4463989622   -0.0009012316

Z-matrix Print:
$molecule
0 1
C 
H  1 1.098599
C  1 1.381886 2 118.356802
H  3 1.098464 1 118.419464 2 179.997018 0
C  1 1.437235 2 116.995776 3 179.996047 0
H  5 1.098591 1 117.001084 2 -179.996920 0
C  5 1.381894 1 124.638099 2 -0.000000 0
H  7 1.098471 5 118.414200 1 0.000000 0
C  7 1.439596 5 124.577736 1 -179.995873 0
H  9 1.098759 7 116.885009 5 -0.002902 0
C  9 1.377757 7 124.734208 5 179.994582 0
H  11 1.098320 9 118.754956 7 -0.000000 0
C  3 1.439611 1 124.569874 2 -0.000000 0
H  13 1.098764 3 116.880435 1 -0.000000 0
C  13 1.377740 3 124.739318 1 179.996894 0
H  15 1.098317 13 118.758339 3 0.001180 0
C  11 1.451191 9 124.392387 7 -179.997854 0
H  17 1.098353 11 116.300062 9 -0.004047 0
C  17 1.362333 11 124.799322 9 179.995117 0
H  19 1.092027 17 121.866376 11 -180.000000 0
H  19 1.094587 17 121.654153 11 -0.001737 0
C  15 1.451213 13 124.390458 3 -179.997433 0
H  22 1.098350 15 116.299127 13 0.001219 0
C  22 1.362328 15 124.796916 13 180.000000 0
H  24 1.092025 22 121.868618 15 -179.998882 0
H  24 1.094588 22 121.651237 15 0.000996 0
$end

 
 --------------------------------------------------------------
 
                    Orbital Energies (a.u.)
 --------------------------------------------------------------
 
 Alpha MOs
 -- Occupied --
 -9.927  -9.927  -9.927  -9.927  -9.927  -9.927  -9.927  -9.927
 -9.926  -9.926  -9.916  -9.916  -0.741  -0.729  -0.711  -0.687
 -0.657  -0.623  -0.571  -0.529  -0.501  -0.494  -0.490  -0.482
 -0.429  -0.419  -0.407  -0.391  -0.374  -0.362  -0.342  -0.337
 -0.323  -0.318  -0.308  -0.303  -0.301  -0.298  -0.288  -0.265
 -0.235  -0.197  -0.154
 -- Virtual --
 -0.089  -0.040   0.006   0.043   0.063   0.067   0.078   0.079
  0.099   0.101   0.103   0.120   0.121   0.129   0.135   0.140
  0.158   0.165   0.173   0.174   0.232   0.278   0.296   0.309
  0.324   0.345   0.353   0.358   0.369   0.371   0.376   0.464
  0.479   0.481   0.491   0.506   0.526   0.528   0.541   0.543
  0.553   0.574   0.592   0.592   0.592   0.596   0.599   0.610
  0.611   0.619   0.631   0.645   0.651   0.656   0.657   0.697
  0.701   0.761   0.771   0.790   0.808   0.821   0.834   0.839
  0.846   0.863   0.864   0.874   0.877   0.905   0.906   0.931
  0.935   0.974   0.981   1.024   1.029   1.044   1.069   1.074
  1.099   1.128   1.135   1.190   1.199   1.256   1.273   1.301
  1.315   1.321   1.397   1.472   1.474
 --------------------------------------------------------------
 
          Ground-State Mulliken Net Atomic Charges

     Atom                 Charge (a.u.)
  ----------------------------------------
      1 C                    -0.281770
      2 C                    -0.038470
      3 C                    -0.090494
      4 C                    -0.092062
      5 C                    -0.092203
      6 C                    -0.092545
      7 H                     0.109632
      8 H                     0.109073
      9 H                     0.095263
     10 H                     0.092957
     11 H                     0.093540
     12 C                    -0.281762
     13 C                    -0.038480
     14 H                     0.109633
     15 H                     0.109076
     16 C                    -0.090498
     17 C                    -0.092030
     18 H                     0.095265
     19 C                    -0.092250
     20 C                    -0.092486
     21 H                     0.093673
     22 H                     0.093539
     23 H                     0.093387
     24 H                     0.093383
     25 H                     0.092959
     26 H                     0.093669
  ----------------------------------------
  Sum of atomic charges =    -0.000000

 -----------------------------------------------------------------
                    Cartesian Multipole Moments
 -----------------------------------------------------------------
    Charge (ESU x 10^10)
                -0.0000
    Dipole Moment (Debye)
         X      -0.0004      Y      -0.0001      Z       0.0002
       Tot       0.0005
    Quadrupole Moments (Debye-Ang)
        XX     -67.9536     XY       0.3672     YY     -65.7273
        XZ       0.0004     YZ       0.0197     ZZ     -79.7602
    Octopole Moments (Debye-Ang^2)
       XXX      -0.0499    XXY      -0.1942    XYY      -0.0088
       YYY      -0.5580    XXZ       0.2067    XYZ      -0.0024
       YYZ       0.1866    XZZ      -0.0137    YZZ      -0.2257
       ZZZ       0.6774
    Hexadecapole Moments (Debye-Ang^3)
      XXXX   -7936.2795   XXXY      45.7356   XXYY   -1336.5355
      XYYY      10.9384   YYYY    -205.3142   XXXZ       0.0372
      XXYZ       0.3683   XYYZ      -0.0066   YYYZ      -0.0646
      XXZZ   -1593.1165   XYZZ       5.9218   YYZZ     -52.7054
      XZZZ       0.0071   YZZZ      -0.1044   ZZZZ     -82.4051
 -----------------------------------------------------------------
Archival summary:
1\1\cub-0-3.local\OPT\ProcedureUnspecified\6-31G\1214\c295_lal\TueOct3021:11:582018TueOct3021:11:582018\0\\#,OPT,ProcedureUnspecified,6-31G,\\0,1\C\H,1,1.0986\C,1,1.38189,2,118.357\H,3,1.09846,1,118.419,2,179.997,0\C,1,1.43723,2,116.996,3,179.996,0\H,5,1.09859,1,117.001,2,-179.997,0\C,5,1.38189,1,124.638,2,-0,0\H,7,1.09847,5,118.414,1,0,0\C,7,1.4396,5,124.578,1,-179.996,0\H,9,1.09876,7,116.885,5,-0.00290192,0\C,9,1.37776,7,124.734,5,179.995,0\H,11,1.09832,9,118.755,7,-0,0\C,3,1.43961,1,124.57,2,-0,0\H,13,1.09876,3,116.88,1,-0,0\C,13,1.37774,3,124.739,1,179.997,0\H,15,1.09832,13,118.758,3,0.00117954,0\C,11,1.45119,9,124.392,7,-179.998,0\H,17,1.09835,11,116.3,9,-0.00404712,0\C,17,1.36233,11,124.799,9,179.995,0\H,19,1.09203,17,121.866,11,-180,0\H,19,1.09459,17,121.654,11,-0.00173697,0\C,15,1.45121,13,124.39,3,-179.997,0\H,22,1.09835,15,116.299,13,0.00121888,0\C,22,1.36233,15,124.797,13,180,0\H,24,1.09202,22,121.869,15,-179.999,0\H,24,1.09459,22,121.651,15,0.000995865,0\\\@

 Total job time:  36.92s(wall), 147.17s(cpu) 
 Tue Oct 30 21:11:58 2018

        *************************************************************
        *                                                           *
        *  Thank you very much for using Q-Chem.  Have a nice day.  *
        *                                                           *
        *************************************************************


