
Running Job 1 of 1 bcar_2_opt_631g_gga.in
qchem bcar_2_opt_631g_gga.in_4235.0 /scr/c295_lal/137032/qchem4235/ 1
/usr/software/qchem_511/exe/qcprog.exe_s bcar_2_opt_631g_gga.in_4235.0 /scr/c295_lal/137032/qchem4235/
Check license passed

                  Welcome to Q-Chem
     A Quantum Leap Into The Future Of Chemistry


 Q-Chem 5.1, Q-Chem, Inc., Pleasanton, CA (2018)

 Yihan Shao,  Zhengting Gan,  E. Epifanovsky,  A. T. B. Gilbert,  M. Wormit,  
 J. Kussmann,  A. W. Lange,  A. Behn,  Jia Deng,  Xintian Feng,  D. Ghosh,  
 M. Goldey,  P. R. Horn,  L. D. Jacobson,  I. Kaliman,  T. Kus,  A. Landau,  
 Jie Liu,  E. I. Proynov,  R. M. Richard,  R. P. Steele,  E. J. Sundstrom,  
 H. L. Woodcock III,  P. M. Zimmerman,  D. Zuev,  B. Albrecht,  E. Alguire,  
 S. A. Baeppler,  D. Barton,  Z. Benda,  Y. A. Bernard,  E. J. Berquist,  
 K. B. Bravaya,  H. Burton,  D. Casanova,  Chun-Min Chang,  Yunqing Chen,  
 A. Chien,  K. D. Closser,  M. P. Coons,  S. Coriani,  S. Dasgupta,  
 A. L. Dempwolff,  M. Diedenhofen,  Hainam Do,  R. G. Edgar,  Po-Tung Fang,  
 S. Faraji,  S. Fatehi,  Qingguo Feng,  K. D. Fenk,  J. Fosso-Tande,  
 Qinghui Ge,  A. Ghysels,  G. Gidofalvi,  J. Gomes,  J. Gonthier,  A. Gunina,  
 D. Hait,  M. W. D. Hanson-Heine,  P. H. P. Harbach,  A. W. Hauser,  
 J. E. Herr,  E. G. Hohenstein,  Z. C. Holden,  Kerwin Hui,  B. C. Huynh,  
 T.-C. Jagau,  Hyunjun Ji,  B. Kaduk,  K. Khistyaev,  Jaehoon Kim,  
 P. Klunzinger,  K. Koh,  D. Kosenkov,  L. Koulias,  T. Kowalczyk,  
 C. M. Krauter,  A. Kunitsa,  Ka Un Lao,  A. Laurent,  K. V. Lawler,  
 Joonho Lee,  D. Lefrancois,  S. Lehtola,  D. S. Levine,  Yi-Pei Li,  
 You-Sheng Lin,  Fenglai Liu,  E. Livshits,  A. Luenser,  P. Manohar,  
 E. Mansoor,  S. F. Manzer,  Shan-Ping Mao,  Yuezhi Mao,  N. Mardirossian,  
 A. V. Marenich,  T. Markovich,  L. A. Martinez-Martinez,  S. A. Maurer,  
 N. J. Mayhall,  S. C. McKenzie,  J.-M. Mewes,  A. F. Morrison,  
 J. W. Mullinax,  K. Nanda,  T. S. Nguyen-Beck,  R. Olivares-Amaya,  
 J. A. Parkhill,  T. M. Perrine,  F. Plasser,  P. Pokhilko,  S. Prager,  
 A. Prociuk,  E. Ramos,  D. R. Rehn,  F. Rob,  M. Schneider,  N. Sergueev,  
 S. M. Sharada,  S. Sharma,  D. W. Small,  T. Stauch,  T. Stein,  
 Yu-Chuan Su,  A. J. W. Thom,  A. Tkatchenko,  T. Tsuchimochi,  N. M. Tubman,  
 L. Vogt,  M. L. Vidal,  O. Vydrov,  M. A. Watson,  J. Wenzel,  
 M. de Wergifosse,  T. A. Wesolowski,  A. White,  J. Witte,  A. Yamada,  
 Jun Yang,  K. Yao,  S. Yeganeh,  S. R. Yost,  Zhi-Qiang You,  A. Zech,  
 Igor Ying Zhang,  Xing Zhang,  Yan Zhao,  Ying Zhu,  B. R. Brooks,  
 G. K. L. Chan,  C. J. Cramer,  M. S. Gordon,  W. J. Hehre,  A. Klamt,  
 M. W. Schmidt,  C. D. Sherrill,  D. G. Truhlar,  A. Aspuru-Guzik,  R. Baer,  
 A. T. Bell,  N. A. Besley,  Jeng-Da Chai,  A. E. DePrince, III,  
 R. A. DiStasio Jr.,  A. Dreuw,  B. D. Dunietz,  T. R. Furlani,  
 Chao-Ping Hsu,  Yousung Jung,  Jing Kong,  D. S. Lambrecht,  WanZhen Liang,  
 C. Ochsenfeld,  V. A. Rassolov,  L. V. Slipchenko,  J. E. Subotnik,  
 T. Van Voorhis,  J. M. Herbert,  A. I. Krylov,  P. M. W. Gill,  M. Head-Gordon

 Contributors to earlier versions of Q-Chem not listed above: 
 R. D. Adamson,  B. Austin,  J. Baker,  G. J. O. Beran,  K. Brandhorst,  
 S. T. Brown,  E. F. C. Byrd,  A. K. Chakraborty,  C.-L. Cheng,  
 Siu Hung Chien,  D. M. Chipman,  D. L. Crittenden,  H. Dachsel,  
 R. J. Doerksen,  A. D. Dutoi,  L. Fusti-Molnar,  W. A. Goddard III,  
 A. Golubeva-Zadorozhnaya,  S. R. Gwaltney,  G. Hawkins,  A. Heyden,  
 S. Hirata,  G. Kedziora,  F. J. Keil,  C. Kelley,  Jihan Kim,  R. A. King,  
 R. Z. Khaliullin,  P. P. Korambath,  W. Kurlancheek,  A. M. Lee,  M. S. Lee,  
 S. V. Levchenko,  Ching Yeh Lin,  D. Liotard,  R. C. Lochan,  I. Lotan,  
 P. E. Maslen,  N. Nair,  D. P. O'Neill,  D. Neuhauser,  E. Neuscamman,  
 C. M. Oana,  R. Olson,  B. Peters,  R. Peverati,  P. A. Pieniazek,  
 Y. M. Rhee,  J. Ritchie,  M. A. Rohrdanz,  E. Rosta,  N. J. Russ,  
 H. F. Schaefer III,  N. E. Schultz,  N. Shenvi,  A. C. Simmonett,  A. Sodt,  
 D. Stuck,  K. S. Thanthiriwatte,  V. Vanovschi,  Tao Wang,  A. Warshel,  
 C. F. Williams,  Q. Wu,  X. Xu,  W. Zhang

 Please cite Q-Chem as follows:
 Y. Shao et al., Mol. Phys. 113, 184-215 (2015)
 DOI: 10.1080/00268976.2014.952696

 Q-Chem 5.1.1 for Intel X86 EM64T Linux

 Parts of Q-Chem use Armadillo 8.300.2 (Tropical Shenanigans).
 http://arma.sourceforge.net/

 Q-Chem begins on Wed Oct 31 00:21:36 2018  

Host: cub-0-27.local
0

     Scratch files written to /scr/c295_lal/137032/qchem4235//
 Aug318 |scratch|qcdevops|jenkins|workspace|build_RNUM -1
Processing $rem in /usr/software/qchem_511/config/preferences.
 MEM_TOTAL  2000 
Input Ideriv = 2
Curr. Ideriv = -1
Max.  Ideriv = 2

Checking the input file for inconsistencies... 	...done.

--------------------------------------------------------------
User input:
--------------------------------------------------------------
$molecule
0 1
C         -1.02580        3.94643       -1.21634
C         -1.40341        2.88364       -0.48140
C         -0.40004        2.13360        0.32160
C         -0.64242        1.05168        1.10541
C          0.52511        0.45257        1.82807
C          0.43989       -0.63435        2.62338
H         -2.43976        2.58771       -0.48559
H          0.62294        2.50031        0.26437
H          1.49339        0.90554        1.65463
C          1.59541       -1.29834        3.32999
H         -0.51809       -1.12987        2.69321
C          2.67214       -0.61644        3.86660
C          3.81705       -1.33563        4.56380
C          3.47503       -2.75080        5.01588
H          4.13101       -0.78740        5.47893
H          4.68109       -1.33937        3.86414
C          2.85413       -3.48887        3.85151
H          2.77248       -2.72873        5.87371
H          4.40496       -3.25611        5.35529
C          1.50120       -2.84489        3.43372
H          2.70826       -4.56363        4.09878
H          3.58530       -3.44066        3.01179
C          2.82187        0.89257        3.90978
H          1.93440        1.47302        3.61768
H          3.70310        1.20404        3.31080
H          2.98712        1.20457        4.96262
C          0.39305       -3.21724        4.44904
H          0.59138       -2.78137        5.44892
H          0.31763       -4.32065        4.55798
H         -0.60210       -2.85187        4.12391
C          1.13993       -3.46804        2.06236
H          1.90323       -3.20261        1.29911
H          0.15258       -3.12108        1.69350
H          1.08904       -4.57639        2.13553
C         -1.96213        4.76005       -2.05407
C         -1.43476        5.80602       -2.73940
C         -2.17756        6.74043       -3.62673
C         -1.53595        7.74190       -4.24805
H         -3.24124        6.63887       -3.79249
H         -0.36711        5.99241       -2.64065
H          0.02380        4.23277       -1.20142
C         -2.26898        8.68112       -5.13688
C         -1.69357        9.71601       -5.79552
C         -2.58680       10.56371       -6.65153
C         -2.19998       11.63159       -7.37378
H         -1.17212       11.95453       -7.37713
H         -3.63931       10.29008       -6.69042
C         -3.19174       12.38922       -8.18456
C         -2.89884       13.47776       -8.94119
H         -4.21878       12.03122       -8.15670
C         -4.03793       14.11440       -9.69535
H         -0.46798        7.85925       -4.09277
H         -3.33744        8.51305       -5.25556
C         -3.93922       15.19978      -10.49735
H         -4.97420       13.62541       -9.54977
C         -5.01254       15.92413      -11.30557
H         -2.96053       15.60859      -10.58089
C         -6.36335       15.60308      -11.34444
C         -7.32683       16.49622      -12.13060
C         -7.04592       17.92084      -11.69092
H         -8.38740       16.25029      -11.91165
H         -7.23097       16.40850      -13.22351
C         -4.57297       17.14949      -12.16993
C         -7.01274       14.47507      -10.58083
H         -8.10862       14.42675      -10.74616
H         -6.87510       14.62493       -9.48996
H         -6.61326       13.50166      -10.93324
C         -4.46358       16.66798      -13.64539
H         -5.37444       16.22652      -14.07213
H         -3.68291       15.88030      -13.72663
H         -4.16650       17.50581      -14.31310
C         -3.17498       17.74034      -11.84036
H         -3.12884       18.06291      -10.77779
H         -2.96976       18.63052      -12.47495
H         -2.34931       17.02591      -12.04277
C         -5.59897       18.33295      -12.02933
H         -7.17170       17.92660      -10.58321
H         -7.76407       18.66201      -12.10259
H         -5.31064       19.04429      -11.22293
H         -5.57133       18.92212      -12.97233
C         -1.46853       13.99107       -8.98995
H         -1.30133       14.87717       -9.62151
H         -0.80243       13.19444       -9.38375
H         -1.13993       14.26911       -7.96618
C         -0.20552        9.97561       -5.64889
H          0.16827       10.83854       -6.22338
H          0.36336        9.08744       -5.99652
H          0.03520       10.17030       -4.58238
C         -3.43184        4.38632       -2.09887
H         -4.06079        5.02908       -2.73555
H         -3.85473        4.43663       -1.07362
H         -3.53550        3.35059       -2.48491
C         -2.01905        0.43727        1.27962
H         -2.83084        0.93357        0.72440
H         -2.29977        0.46645        2.35337
H         -1.99670       -0.61850        0.93703
$end

$rem
BASIS = 6-31G
METHOD  = BLYP
JOBTYPE = OPT
$end
--------------------------------------------------------------
 ----------------------------------------------------------------
             Standard Nuclear Orientation (Angstroms)
    I     Atom           X                Y                Z
 ----------------------------------------------------------------
    1      C       4.3627776103     0.4463807950    -0.1058481761
    2      C       5.5035195246     1.1575918363    -0.1775101569
    3      C       6.8207174710     0.4663150838    -0.1422060536
    4      C       8.0416321440     1.0567546053    -0.2085807447
    5      C       9.2409679582     0.1606377155    -0.1550579140
    6      C      10.5144291331     0.6059459409    -0.1893033718
    7      H       5.4453913724     2.2306248517    -0.2601824585
    8      H       6.7849746063    -0.6177697666    -0.0543307888
    9      H       9.0552116554    -0.8998010042    -0.0376111996
   10      C      11.7489179609    -0.2551403022    -0.0894299593
   11      H      10.6708893424     1.6753276339    -0.1985216853
   12      C      11.8580740420    -1.5213050827    -0.6345878206
   13      C      13.1249748640    -2.3523549304    -0.4987222176
   14      C      14.3632256183    -1.5387685357    -0.1397342184
   15      H      13.3632515536    -2.8709737147    -1.4531061588
   16      H      12.9275857482    -3.1348668916     0.2660102796
   17      C      14.0313154814    -0.6578226109     1.0433936573
   18      H      14.6870769449    -0.9184155915    -1.0000937010
   19      H      15.1942967902    -2.2349986380     0.1049931832
   20      C      12.9366499520     0.3855019330     0.6788945705
   21      H      14.9429656179    -0.1431295879     1.4195780377
   22      H      13.6739788357    -1.3307028759     1.8567853969
   23      C      10.8032344906    -2.2048378229    -1.4839942482
   24      H       9.9566826918    -1.5767057447    -1.7980766540
   25      H      10.4380677060    -3.1198684411    -0.9723995831
   26      H      11.2620972265    -2.5041569666    -2.4499014218
   27      C      13.5424976255     1.5209853161    -0.1820013178
   28      H      13.8855863775     1.1479418085    -1.1680064445
   29      H      14.4091816201     1.9846169346     0.3366260089
   30      H      12.8068375345     2.3279049449    -0.3749086000
   31      C      12.4612041782     0.9894922604     2.0237392402
   32      H      11.9979924520     0.2061504421     2.6620503162
   33      H      11.7144321146     1.7971285653     1.8776089977
   34      H      13.3161043119     1.4331454288     2.5793479075
   35      C       2.9948235549     1.0533662305    -0.1332946599
   36      C       1.9368542334     0.2069791841    -0.0546851874
   37      C       0.5001201845     0.5916057713    -0.0639630147
   38      C      -0.4551050271    -0.3473310693     0.0171942389
   39      H       0.1910650381     1.6253135258    -0.1356508679
   40      H       2.1427739734    -0.8588278312     0.0229149672
   41      H       4.4381436306    -0.6358979540    -0.0229866382
   42      C      -1.8937377300     0.0265016763     0.0087691119
   43      C      -2.9143121315    -0.8615414482     0.0843199543
   44      C      -4.3073617297    -0.3064306481     0.0625700244
   45      C      -5.4416423190    -1.0284591397     0.1236017487
   46      H      -5.4104700386    -2.1030487704     0.1948973317
   47      H      -4.4076689764     0.7747443508    -0.0092783368
   48      C      -6.7661731577    -0.3504946944     0.0929816361
   49      C      -7.9618834811    -0.9912822636     0.1465242557
   50      H      -6.7560224346     0.7351664539     0.0223546224
   51      C      -9.2008951553    -0.1341936480     0.1035940846
   52      H      -0.1630791485    -1.3903879262     0.0892782269
   53      H      -2.1257269377     1.0871027395    -0.0636576185
   54      C     -10.4737366418    -0.5913191377     0.1472775533
   55      H      -8.9969840628     0.9102168593     0.0362648335
   56      C     -11.7936442542     0.1745934949     0.1135129664
   57      H     -10.5686914842    -1.6484098179     0.2213149469
   58      C     -11.9379842782     1.5510129200    -0.0044156523
   59      C     -13.3405560277     2.1531105383    -0.1240453357
   60      C     -14.0542653812     1.3651398933    -1.2064003127
   61      H     -13.3051960459     3.2237537742    -0.4167945893
   62      H     -13.9212748305     2.1295383265     0.8105916147
   63      C     -13.1182070391    -0.6487906064     0.2105653989
   64      C     -10.8034026184     2.5382365329    -0.1282225979
   65      H     -11.1603071853     3.5828191247    -0.2381686969
   66      H     -10.2080499234     2.3217681532    -1.0393190556
   67      H     -10.1904995828     2.5267092807     0.7967212372
   68      C     -13.6377521279    -0.5313982566     1.6724450795
   69      H     -13.8139746641     0.4901821601     2.0357341777
   70      H     -12.8949576701    -0.9737089029     2.3718041107
   71      H     -14.5914571173    -1.0887353424     1.7984389104
   72      C     -12.9832077082    -2.1753328048    -0.0415065051
   73      H     -12.5578761114    -2.3676749335    -1.0501356975
   74      H     -13.9798749745    -2.6668614886     0.0063898642
   75      H     -12.3573109550    -2.6821448708     0.7230232627
   76      C     -14.1837913249    -0.1218424308    -0.8189382104
   77      H     -13.4115123651     1.4456186386    -2.1137409113
   78      H     -15.0486804811     1.7813305690    -1.4756000731
   79      H     -14.1403050986    -0.6717907037    -1.7859364471
   80      H     -15.1934642220    -0.3298600200    -0.4012977168
   81      C      -7.9930904274    -2.5082182968     0.2444149467
   82      H      -8.9949693325    -2.9629175168     0.2829423717
   83      H      -7.4660986413    -2.8306563188     1.1672910956
   84      H      -7.4834414781    -2.9467566344    -0.6395145128
   85      C      -2.6216466409    -2.3472391051     0.1854866597
   86      H      -3.5163491379    -2.9880652723     0.2425407946
   87      H      -2.0241183354    -2.5475461721     1.0999012393
   88      H      -2.0471709496    -2.6751939791    -0.7065431466
   89      C       2.8543815484     2.5597986125    -0.2458386884
   90      H       1.8185662749     2.9352420807    -0.2602908111
   91      H       3.3344195801     2.9039334546    -1.1858595973
   92      H       3.3592123363     3.0409633213     0.6179525530
   93      C       8.2392832877     2.5560413400    -0.3351992328
   94      H       7.3137326122     3.1521037499    -0.3758377994
   95      H       8.8025971321     2.7736630601    -1.2668174771
   96      H       8.8191831354     2.9255303672     0.5364152169
 ----------------------------------------------------------------
 Molecular Point Group                 C1    NOp =  1
 Largest Abelian Subgroup              C1    NOp =  1
 Nuclear Repulsion Energy =  3597.6183224283 hartrees
 There are      148 alpha and      148 beta electrons
 Requested basis set is 6-31G
 There are 232 shells and 472 basis functions

 Total QAlloc Memory Limit   2000 MB
 Mega-Array Size       188 MB
 MEM_STATIC part       192 MB
 A cutoff of  1.0D-11 yielded   8208 shell pairs
 There are     37401 function pairs
 
 -------------------------------------------------------
 OpenMP Integral Computing Module                       
 Release: version 1.0, May 2013, Q-Chem Inc. Pittsburgh 
 -------------------------------------------------------
 Integral Job Info:
 Integral job number is                      11
 Integral operator is                         1
 short-range coefficients                     0
 long-range coefficients              100000000
 Omega coefficients                           0
 if combine SR and LR in K                    0
 Integral screening is                        0
 Integral computing path is                   2
 max size of driver memory is            800000
 size of driver memory is                 45569
 size of scratch memory is              2040132
 max col of scratch BK array                289
 max len of scratch array in speh3           22
 max len of scratch index in speh4            8
 max int batch size is                      520
 min int batch size is                       52
 fixed nKL is                                52
 max L of basis functions is                  1
 order of int derivative is                   0
 number of shells is                        232
 number of basis is                         472
 number of cartesian basis is               472
 number of contracted shell pairs          8208
 number of primitive shell pairs          30034
 maxK2 (contraction) of shell pair           36
 max number of K2 of shell pair               1
 max number of CS2 of shell pair           1456
 max number of PS2 of shell pair           5712
 mem total for path MDJ                  634238
 -------------------------------------------------------
 Smallest overlap matrix eigenvalue = 1.48E-03

 Scale SEOQF with 1.000000e-02/1.000000e-01/1.000000e-01

 Standard Electronic Orientation quadrupole field applied
 Nucleus-field energy     =     0.0000001374 hartrees
 Guess from superposition of atomic densities
 Warning:  Energy on first SCF cycle will be non-variational
 SAD guess density has 296.000001 electrons

 -----------------------------------------------------------------------
  General SCF calculation program by
  Eric Jon Sundstrom, Paul Horn, Yuezhi Mao, Dmitri Zuev, Alec White,
  David Stuck, Shaama M.S., Shane Yost, Joonho Lee, David Small,
  Daniel Levine, Susi Lehtola, Hugh Burton, Evgeny Epifanovsky
 -----------------------------------------------------------------------
 Exchange:  B88      Correlation:  LYP
 Using SG-1 standard quadrature grid
 using 4 threads for integral computing
 -------------------------------------------------------
 OpenMP Integral computing Module                
 Release: version 1.0, May 2013, Q-Chem Inc. Pittsburgh 
 -------------------------------------------------------
 -------------------------------------------------------
 OpenMP BLAS3 based DFT computing Module                
 Release: version 1.0, May 2013, Q-Chem Inc. Pittsburgh 
 -------------------------------------------------------
 A restricted SCF calculation will be
 performed using DIIS
 SCF converges when DIIS error is below 1.0e-08
 ---------------------------------------
  Cycle       Energy         DIIS error
 ---------------------------------------
    1   -1562.2757184444      4.19e-02  
    2   -1555.4784680158      5.93e-03  
    3   -1554.7259806760      7.55e-03  
    4   -1556.5975597368      8.68e-04  
    5   -1556.6122822261      5.57e-04  
    6   -1556.6207986440      2.52e-04  
    7   -1556.6228976604      5.72e-05  
    8   -1556.6229742774      3.24e-05  
    9   -1556.6230072730      9.99e-06  
   10   -1556.6230104843      3.15e-06  
   11   -1556.6230107743      1.56e-06  
   12   -1556.6230108513      4.06e-07  
   13   -1556.6230108556      2.16e-07  
   14   -1556.6230108573      5.59e-08  
   15   -1556.6230108574      1.74e-08  
   16   -1556.6230108574      9.37e-09  Convergence criterion met
 ---------------------------------------
 SCF time:   CPU 427.35s  wall 107.00s 
 SCF   energy in the final basis set =    -1556.6230108574
 Total energy in the final basis set =    -1556.6230108574
 
 --------------------------------------------------------------
 
                    Orbital Energies (a.u.)
 --------------------------------------------------------------
 
 Alpha MOs
 -- Occupied --
 -9.931  -9.927  -9.927  -9.926  -9.925  -9.924  -9.919  -9.919
 -9.919  -9.916  -9.915  -9.915  -9.915  -9.915  -9.914  -9.914
 -9.914  -9.914  -9.913  -9.913  -9.913  -9.912  -9.911  -9.911
 -9.911  -9.910  -9.910  -9.910  -9.909  -9.909  -9.908  -9.908
 -9.907  -9.906  -9.905  -9.905  -9.904  -9.903  -9.900  -9.899
 -0.757  -0.755  -0.744  -0.739  -0.730  -0.724  -0.701  -0.697
 -0.696  -0.689  -0.683  -0.669  -0.660  -0.644  -0.641  -0.620
 -0.611  -0.610  -0.606  -0.602  -0.601  -0.597  -0.593  -0.592
 -0.589  -0.550  -0.536  -0.523  -0.511  -0.501  -0.494  -0.489
 -0.481  -0.479  -0.473  -0.467  -0.458  -0.447  -0.436  -0.435
 -0.421  -0.415  -0.411  -0.409  -0.404  -0.399  -0.396  -0.390
 -0.385  -0.383  -0.378  -0.370  -0.367  -0.366  -0.366  -0.365
 -0.363  -0.363  -0.362  -0.358  -0.357  -0.353  -0.351  -0.346
 -0.340  -0.338  -0.337  -0.332  -0.331  -0.331  -0.329  -0.329
 -0.326  -0.320  -0.320  -0.319  -0.316  -0.314  -0.310  -0.308
 -0.306  -0.301  -0.298  -0.295  -0.293  -0.289  -0.287  -0.284
 -0.282  -0.282  -0.276  -0.275  -0.275  -0.270  -0.268  -0.264
 -0.255  -0.252  -0.251  -0.246  -0.240  -0.239  -0.225  -0.206
 -0.191  -0.173  -0.154  -0.138
 -- Virtual --
 -0.078  -0.054  -0.031  -0.007   0.012   0.033   0.052   0.059
  0.061   0.062   0.066   0.069   0.072   0.074   0.079   0.080
  0.083   0.085   0.086   0.088   0.092   0.093   0.095   0.099
  0.100   0.101   0.108   0.111   0.112   0.115   0.116   0.123
  0.123   0.126   0.128   0.131   0.133   0.137   0.138   0.142
  0.144   0.147   0.152   0.152   0.153   0.154   0.159   0.159
  0.161   0.163   0.165   0.166   0.167   0.170   0.172   0.175
  0.178   0.180   0.185   0.186   0.189   0.190   0.191   0.196
  0.199   0.199   0.201   0.204   0.209   0.210   0.213   0.214
  0.218   0.219   0.222   0.225   0.228   0.231   0.237   0.240
  0.249   0.254   0.254   0.259   0.262   0.264   0.268   0.284
  0.287   0.312   0.320   0.331   0.342   0.346   0.356   0.363
  0.370   0.371   0.382   0.386   0.399   0.401   0.415   0.418
  0.422   0.431   0.454   0.460   0.479   0.484   0.487   0.488
  0.490   0.493   0.495   0.498   0.500   0.504   0.506   0.510
  0.512   0.520   0.526   0.526   0.528   0.530   0.532   0.535
  0.536   0.540   0.545   0.547   0.549   0.555   0.556   0.558
  0.560   0.565   0.566   0.568   0.574   0.579   0.584   0.588
  0.595   0.602   0.606   0.609   0.612   0.614   0.617   0.619
  0.623   0.625   0.627   0.630   0.636   0.639   0.641   0.642
  0.645   0.649   0.654   0.661   0.663   0.668   0.671   0.677
  0.686   0.687   0.688   0.695   0.698   0.701   0.702   0.707
  0.709   0.713   0.714   0.717   0.720   0.729   0.730   0.732
  0.735   0.739   0.748   0.752   0.755   0.757   0.767   0.767
  0.773   0.779   0.781   0.784   0.789   0.791   0.800   0.802
  0.803   0.808   0.813   0.821   0.828   0.831   0.839   0.843
  0.845   0.849   0.854   0.855   0.858   0.862   0.866   0.875
  0.878   0.879   0.880   0.882   0.885   0.886   0.888   0.890
  0.892   0.896   0.897   0.901   0.901   0.909   0.911   0.915
  0.916   0.917   0.917   0.921   0.926   0.928   0.930   0.932
  0.938   0.943   0.944   0.945   0.948   0.949   0.951   0.958
  0.960   0.966   0.967   0.971   0.974   0.981   0.984   0.989
  0.994   1.004   1.007   1.029   1.033   1.046   1.051   1.058
  1.062   1.065   1.078   1.079   1.091   1.096   1.105   1.116
  1.124   1.127   1.146   1.148   1.158   1.163   1.165   1.181
  1.184   1.188   1.200   1.207   1.210   1.220   1.227   1.237
  1.249   1.263   1.267   1.279   1.285   1.292   1.300   1.306
  1.312   1.330   1.346   1.353   1.360   1.401   1.418   1.429
  1.432   1.450   1.468   1.483   1.508   1.529   1.538   1.547
  1.557   1.563   1.577   1.597   1.618   1.625   1.662   1.673
  1.693   1.743   1.837   2.013
 --------------------------------------------------------------
 
          Ground-State Mulliken Net Atomic Charges

     Atom                 Charge (a.u.)
  ----------------------------------------
      1 C                    -0.134645
      2 C                    -0.077457
      3 C                    -0.167214
      4 C                     0.149264
      5 C                    -0.116019
      6 C                    -0.150719
      7 H                     0.094693
      8 H                     0.084103
      9 H                     0.101698
     10 C                     0.103022
     11 H                     0.095600
     12 C                     0.083891
     13 C                    -0.274332
     14 C                    -0.215254
     15 H                     0.109812
     16 H                     0.119800
     17 C                    -0.203204
     18 H                     0.113876
     19 H                     0.097933
     20 C                    -0.001478
     21 H                     0.095461
     22 H                     0.103526
     23 C                    -0.438954
     24 H                     0.138925
     25 H                     0.125101
     26 H                     0.120462
     27 C                    -0.365770
     28 H                     0.120580
     29 H                     0.111778
     30 H                     0.116635
     31 C                    -0.353744
     32 H                     0.116287
     33 H                     0.107976
     34 H                     0.107952
     35 C                     0.152532
     36 C                    -0.171440
     37 C                    -0.076389
     38 C                    -0.080738
     39 H                     0.093820
     40 H                     0.085767
     41 H                     0.088020
     42 C                    -0.165858
     43 C                     0.143311
     44 C                    -0.129600
     45 C                    -0.076950
     46 H                     0.095072
     47 H                     0.086664
     48 C                    -0.167535
     49 C                     0.144228
     50 H                     0.084786
     51 C                    -0.110183
     52 H                     0.094365
     53 H                     0.085947
     54 C                    -0.150631
     55 H                     0.086473
     56 C                     0.131095
     57 H                     0.083052
     58 C                     0.060123
     59 C                    -0.272644
     60 C                    -0.211683
     61 H                     0.103291
     62 H                     0.124902
     63 C                    -0.006915
     64 C                    -0.442291
     65 H                     0.116145
     66 H                     0.143460
     67 H                     0.143480
     68 C                    -0.362627
     69 H                     0.122707
     70 H                     0.116946
     71 H                     0.107062
     72 C                    -0.370855
     73 H                     0.116580
     74 H                     0.113194
     75 H                     0.114124
     76 C                    -0.207758
     77 H                     0.111670
     78 H                     0.099179
     79 H                     0.108651
     80 H                     0.101768
     81 C                    -0.456156
     82 H                     0.130473
     83 H                     0.140681
     84 H                     0.140862
     85 C                    -0.452943
     86 H                     0.127081
     87 H                     0.142316
     88 H                     0.142276
     89 C                    -0.451606
     90 H                     0.131377
     91 H                     0.138602
     92 H                     0.138759
     93 C                    -0.451517
     94 H                     0.129699
     95 H                     0.138447
     96 H                     0.137753
  ----------------------------------------
  Sum of atomic charges =    -0.000000

 -----------------------------------------------------------------
                    Cartesian Multipole Moments
 -----------------------------------------------------------------
    Charge (ESU x 10^10)
                -0.0000
    Dipole Moment (Debye)
         X       0.0610      Y       0.1023      Z      -0.1748
       Tot       0.2115
    Quadrupole Moments (Debye-Ang)
        XX    -224.0358     XY      -2.2554     YY    -232.8052
        XZ      -0.0759     YZ      -1.4976     ZZ    -257.0401
    Octopole Moments (Debye-Ang^2)
       XXX     -37.7938    XXY      12.1766    XYY      -4.4075
       YYY       5.5993    XXZ     -14.6927    XYZ       7.1211
       YYZ      -0.3929    XZZ       4.1812    YZZ      -2.4566
       ZZZ      -3.4518
    Hexadecapole Moments (Debye-Ang^3)
      XXXX -141057.8184   XXXY    -911.7433   XXYY  -24362.4491
      XYYY      -3.7397   YYYY   -3625.7484   XXXZ     109.6108
      XXYZ     -33.7532   XYYZ     -12.3605   YYYZ     -11.8636
      XXZZ  -25236.9883   XYZZ     -30.1457   YYZZ    -781.6116
      XZZZ      -2.7719   YZZZ       0.0593   ZZZZ   -1047.2776
 -----------------------------------------------------------------
 Calculating analytic gradient of the SCF energy
 Gradient of SCF Energy
            1           2           3           4           5           6
    1   0.0395641  -0.0407232   0.0346976  -0.0228032   0.0260170  -0.0280988
    2  -0.0106896   0.0166243  -0.0170846   0.0097109  -0.0193505   0.0159501
    3   0.0004035  -0.0008441   0.0006140   0.0003175  -0.0008162  -0.0029800
            7           8           9          10          11          12
    1  -0.0043374   0.0026116   0.0053227   0.0104372  -0.0043248   0.0040700
    2  -0.0094966   0.0055122   0.0048867   0.0035900  -0.0081682  -0.0150615
    3   0.0007884  -0.0004709  -0.0011846   0.0028932   0.0020875   0.0035049
           13          14          15          16          17          18
    1  -0.0003281  -0.0129005   0.0083588  -0.0041656  -0.0058395   0.0000171
    2   0.0061566   0.0075183   0.0030766   0.0018958  -0.0006285   0.0036192
    3   0.0097212   0.0013578  -0.0023541   0.0013868  -0.0079131  -0.0005472
           19          20          21          22          23          24
    1   0.0003681   0.0011245   0.0051465   0.0000324  -0.0004217   0.0006261
    2  -0.0036152  -0.0030762  -0.0009477  -0.0063271  -0.0000570   0.0000625
    3   0.0020016  -0.0078984  -0.0002162  -0.0000514   0.0100682  -0.0076815
           25          26          27          28          29          30
    1   0.0025072  -0.0020850  -0.0066069   0.0002888   0.0025266  -0.0018064
    2  -0.0012281   0.0066768  -0.0088959  -0.0016684   0.0012548   0.0026271
    3   0.0045429  -0.0034767   0.0073785  -0.0032657   0.0018846  -0.0005753
           31          32          33          34          35          36
    1   0.0075262  -0.0017576  -0.0022543   0.0025177  -0.0288065   0.0408987
    2  -0.0067847  -0.0040516   0.0035704   0.0028591   0.0064604  -0.0090451
    3  -0.0104201   0.0018952  -0.0009069   0.0020942  -0.0001507   0.0001219
           37          38          39          40          41          42
    1  -0.0512209   0.0509007  -0.0027228   0.0014578   0.0045575  -0.0424529
    2   0.0036364  -0.0002972  -0.0094185   0.0057290   0.0057343   0.0046063
    3   0.0004221  -0.0007073   0.0007505  -0.0005408  -0.0005354   0.0002635
           43          44          45          46          47          48
    1   0.0409496  -0.0430813   0.0431798   0.0010723  -0.0045180  -0.0365663
    2  -0.0056371   0.0114104  -0.0162579   0.0095623  -0.0060483   0.0132686
    3  -0.0002422  -0.0003487   0.0006400  -0.0006150   0.0005023  -0.0006666
           49          50          51          52          53          54
    1   0.0371221  -0.0021127  -0.0294995   0.0018303  -0.0012435   0.0371295
    2  -0.0102730  -0.0053533   0.0224037   0.0058293  -0.0054999  -0.0249708
    3   0.0004861   0.0003614  -0.0014368  -0.0004711   0.0004702   0.0001967
           55          56          57          58          59          60
    1  -0.0050747  -0.0204712   0.0071903   0.0028905  -0.0021712   0.0075484
    2  -0.0151953   0.0058276   0.0190386   0.0028231  -0.0117533   0.0017056
    3   0.0011215   0.0067688  -0.0012678  -0.0060876  -0.0009779   0.0165484
           61          62          63          64          65          66
    1  -0.0047137   0.0002156  -0.0005632  -0.0020274   0.0019833  -0.0064363
    2   0.0035799   0.0011478   0.0031976  -0.0071385   0.0050571  -0.0007163
    3  -0.0023164  -0.0049096  -0.0027513  -0.0016669  -0.0005562  -0.0069278
           67          68          69          70          71          72
    1  -0.0066755   0.0047186   0.0000065   0.0028700  -0.0029565  -0.0056972
    2   0.0009679   0.0039678  -0.0032372  -0.0001281  -0.0010630   0.0083806
    3   0.0071130  -0.0151181   0.0032742   0.0032364   0.0006989   0.0053261
           73          74          75          76          77          78
    1   0.0008567  -0.0032351   0.0009165   0.0108842   0.0062525  -0.0030091
    2   0.0018410  -0.0041824  -0.0024162   0.0029465   0.0003499  -0.0001573
    3  -0.0047019   0.0015745   0.0039639   0.0095529  -0.0015182  -0.0022710
           79          80          81          82          83          84
    1  -0.0024803  -0.0030177   0.0014433   0.0014339   0.0004313   0.0003134
    2   0.0059034  -0.0011502   0.0059719  -0.0044631   0.0019546   0.0012412
    3  -0.0079973   0.0000889  -0.0004089   0.0002664   0.0050361  -0.0052201
           85          86          87          88          89          90
    1   0.0012502   0.0006390   0.0003137   0.0002458  -0.0058998  -0.0008416
    2   0.0063361  -0.0032504   0.0020838   0.0014002  -0.0041909   0.0051261
    3  -0.0004555   0.0002679   0.0050189  -0.0053276   0.0004600  -0.0004402
           91          92          93          94          95          96
    1  -0.0005989  -0.0004690  -0.0065150   0.0007033  -0.0012534  -0.0011812
    2  -0.0026936  -0.0019961  -0.0022409   0.0050813  -0.0025473  -0.0017098
    3  -0.0044931   0.0047994   0.0006881  -0.0004045  -0.0046256   0.0048018
 Max gradient component =       5.122E-02
 RMS gradient           =       1.114E-02
 Gradient time:  CPU 53.82 s  wall 13.55 s
 Geometry Optimization Parameters
   NAtoms,    NIC,     NZ,  NCons,   NDum,   NFix, NCnnct, MaxDiis
       96     697       0       0       0       0       0       0


** GEOMETRY OPTIMIZATION IN DELOCALIZED INTERNAL COORDINATES **
   Searching for a Minimum

   Optimization Cycle:   1

                       Coordinates (Angstroms)
     ATOM                X               Y               Z
      1  C         4.3627776103    0.4463807950   -0.1058481761
      2  C         5.5035195246    1.1575918363   -0.1775101569
      3  C         6.8207174710    0.4663150838   -0.1422060536
      4  C         8.0416321440    1.0567546053   -0.2085807447
      5  C         9.2409679582    0.1606377155   -0.1550579140
      6  C        10.5144291331    0.6059459409   -0.1893033718
      7  H         5.4453913724    2.2306248517   -0.2601824585
      8  H         6.7849746063   -0.6177697666   -0.0543307888
      9  H         9.0552116554   -0.8998010042   -0.0376111996
     10  C        11.7489179609   -0.2551403022   -0.0894299593
     11  H        10.6708893424    1.6753276339   -0.1985216853
     12  C        11.8580740420   -1.5213050827   -0.6345878206
     13  C        13.1249748640   -2.3523549304   -0.4987222176
     14  C        14.3632256183   -1.5387685357   -0.1397342184
     15  H        13.3632515536   -2.8709737147   -1.4531061588
     16  H        12.9275857482   -3.1348668916    0.2660102796
     17  C        14.0313154814   -0.6578226109    1.0433936573
     18  H        14.6870769449   -0.9184155915   -1.0000937010
     19  H        15.1942967902   -2.2349986380    0.1049931832
     20  C        12.9366499520    0.3855019330    0.6788945705
     21  H        14.9429656179   -0.1431295879    1.4195780377
     22  H        13.6739788357   -1.3307028759    1.8567853969
     23  C        10.8032344906   -2.2048378229   -1.4839942482
     24  H         9.9566826918   -1.5767057447   -1.7980766540
     25  H        10.4380677060   -3.1198684411   -0.9723995831
     26  H        11.2620972265   -2.5041569666   -2.4499014218
     27  C        13.5424976255    1.5209853161   -0.1820013178
     28  H        13.8855863775    1.1479418085   -1.1680064445
     29  H        14.4091816201    1.9846169346    0.3366260089
     30  H        12.8068375345    2.3279049449   -0.3749086000
     31  C        12.4612041782    0.9894922604    2.0237392402
     32  H        11.9979924520    0.2061504421    2.6620503162
     33  H        11.7144321146    1.7971285653    1.8776089977
     34  H        13.3161043119    1.4331454288    2.5793479075
     35  C         2.9948235549    1.0533662305   -0.1332946599
     36  C         1.9368542334    0.2069791841   -0.0546851874
     37  C         0.5001201845    0.5916057713   -0.0639630147
     38  C        -0.4551050271   -0.3473310693    0.0171942389
     39  H         0.1910650381    1.6253135258   -0.1356508679
     40  H         2.1427739734   -0.8588278312    0.0229149672
     41  H         4.4381436306   -0.6358979540   -0.0229866382
     42  C        -1.8937377300    0.0265016763    0.0087691119
     43  C        -2.9143121315   -0.8615414482    0.0843199543
     44  C        -4.3073617297   -0.3064306481    0.0625700244
     45  C        -5.4416423190   -1.0284591397    0.1236017487
     46  H        -5.4104700386   -2.1030487704    0.1948973317
     47  H        -4.4076689764    0.7747443508   -0.0092783368
     48  C        -6.7661731577   -0.3504946944    0.0929816361
     49  C        -7.9618834811   -0.9912822636    0.1465242557
     50  H        -6.7560224346    0.7351664539    0.0223546224
     51  C        -9.2008951553   -0.1341936480    0.1035940846
     52  H        -0.1630791485   -1.3903879262    0.0892782269
     53  H        -2.1257269377    1.0871027395   -0.0636576185
     54  C       -10.4737366418   -0.5913191377    0.1472775533
     55  H        -8.9969840628    0.9102168593    0.0362648335
     56  C       -11.7936442542    0.1745934949    0.1135129664
     57  H       -10.5686914842   -1.6484098179    0.2213149469
     58  C       -11.9379842782    1.5510129200   -0.0044156523
     59  C       -13.3405560277    2.1531105383   -0.1240453357
     60  C       -14.0542653812    1.3651398933   -1.2064003127
     61  H       -13.3051960459    3.2237537742   -0.4167945893
     62  H       -13.9212748305    2.1295383265    0.8105916147
     63  C       -13.1182070391   -0.6487906064    0.2105653989
     64  C       -10.8034026184    2.5382365329   -0.1282225979
     65  H       -11.1603071853    3.5828191247   -0.2381686969
     66  H       -10.2080499234    2.3217681532   -1.0393190556
     67  H       -10.1904995828    2.5267092807    0.7967212372
     68  C       -13.6377521279   -0.5313982566    1.6724450795
     69  H       -13.8139746641    0.4901821601    2.0357341777
     70  H       -12.8949576701   -0.9737089029    2.3718041107
     71  H       -14.5914571173   -1.0887353424    1.7984389104
     72  C       -12.9832077082   -2.1753328048   -0.0415065051
     73  H       -12.5578761114   -2.3676749335   -1.0501356975
     74  H       -13.9798749745   -2.6668614886    0.0063898642
     75  H       -12.3573109550   -2.6821448708    0.7230232627
     76  C       -14.1837913249   -0.1218424308   -0.8189382104
     77  H       -13.4115123651    1.4456186386   -2.1137409113
     78  H       -15.0486804811    1.7813305690   -1.4756000731
     79  H       -14.1403050986   -0.6717907037   -1.7859364471
     80  H       -15.1934642220   -0.3298600200   -0.4012977168
     81  C        -7.9930904274   -2.5082182968    0.2444149467
     82  H        -8.9949693325   -2.9629175168    0.2829423717
     83  H        -7.4660986413   -2.8306563188    1.1672910956
     84  H        -7.4834414781   -2.9467566344   -0.6395145128
     85  C        -2.6216466409   -2.3472391051    0.1854866597
     86  H        -3.5163491379   -2.9880652723    0.2425407946
     87  H        -2.0241183354   -2.5475461721    1.0999012393
     88  H        -2.0471709496   -2.6751939791   -0.7065431466
     89  C         2.8543815484    2.5597986125   -0.2458386884
     90  H         1.8185662749    2.9352420807   -0.2602908111
     91  H         3.3344195801    2.9039334546   -1.1858595973
     92  H         3.3592123363    3.0409633213    0.6179525530
     93  C         8.2392832877    2.5560413400   -0.3351992328
     94  H         7.3137326122    3.1521037499   -0.3758377994
     95  H         8.8025971321    2.7736630601   -1.2668174771
     96  H         8.8191831354    2.9255303672    0.5364152169
   Point Group: c1    Number of degrees of freedom:   282


   Energy is  -1556.623010857


 Attempting to Generate Delocalized Internal Coordinates

282 Hessian modes will be used to form the next step
  Hessian Eigenvalues:
     0.002000    0.002156    0.002694    0.002778    0.003419    0.004040
     0.005686    0.006479    0.006847    0.006857    0.006911    0.006925
     0.007864    0.007982    0.008062    0.008229    0.008450    0.009214
     0.009386    0.009430    0.009599    0.010038    0.010680    0.010730
     0.010767    0.010851    0.010973    0.011529    0.012641    0.013168
     0.013264    0.013615    0.013717    0.014091    0.017140    0.018861
     0.019075    0.019407    0.019514    0.019529    0.019545    0.019578
     0.019615    0.019826    0.019973    0.020129    0.020342    0.020425
     0.027384    0.027987    0.028010    0.028075    0.028366    0.028605
     0.029086    0.029524    0.029554    0.030095    0.031018    0.031169
     0.032038    0.040007    0.045079    0.046848    0.047431    0.048989
     0.049456    0.050016    0.052283    0.052509    0.053489    0.053716
     0.053910    0.054274    0.054563    0.054951    0.054982    0.055244
     0.055689    0.060440    0.063453    0.065823    0.067344    0.067640
     0.067994    0.068073    0.068154    0.068830    0.072496    0.073230
     0.073576    0.073741    0.074221    0.074290    0.075057    0.075062
     0.077341    0.078060    0.081867    0.082459    0.083900    0.088004
     0.095358    0.097758    0.099261    0.119433    0.120484    0.131252
     0.133134    0.158996    0.159608    0.159902    0.159999    0.160000
     0.160000    0.160000    0.160000    0.160000    0.160000    0.160000
     0.160000    0.160000    0.160000    0.160000    0.160000    0.160000
     0.160000    0.160000    0.160000    0.160000    0.160000    0.160000
     0.160000    0.160000    0.160000    0.160000    0.160000    0.160000
     0.160000    0.160000    0.160000    0.160000    0.160000    0.160000
     0.160000    0.160000    0.160000    0.160000    0.160000    0.160000
     0.160000    0.160000    0.160000    0.160000    0.166900    0.185409
     0.193242    0.212972    0.220000    0.220000    0.220000    0.220000
     0.220000    0.220000    0.220000    0.220000    0.220000    0.220000
     0.220000    0.220000    0.220030    0.220134    0.227341    0.249046
     0.249461    0.249991    0.249993    0.249999    0.250000    0.250000
     0.250000    0.250000    0.250000    0.250000    0.250000    0.252847
     0.259498    0.264234    0.270741    0.271563    0.273899    0.275114
     0.277347    0.277883    0.286209    0.290598    0.293393    0.296782
     0.297577    0.301425    0.303270    0.305965    0.306037    0.306432
     0.306540    0.314467    0.315072    0.316355    0.320926    0.321304
     0.322539    0.323427    0.323564    0.323613    0.323870    0.323920
     0.323968    0.324050    0.324100    0.324124    0.324323    0.324476
     0.324510    0.324589    0.324838    0.325386    0.325387    0.325421
     0.325432    0.325462    0.325513    0.325519    0.325765    0.325777
     0.325801    0.325805    0.325807    0.325878    0.326334    0.326380
     0.326383    0.326706    0.327035    0.327128    0.327230    0.327447
     0.334618    0.334780    0.335026    0.335820    0.336151    0.336395
     0.336705    0.336898    0.337409    0.338433    0.338507    0.350113
     0.350183    0.350223    0.350343    0.350379    0.350444    0.353307
     0.356376    0.358379    0.358971    0.362637    0.363099    0.377071
     0.380084    0.454773    0.469591    0.533920    0.534265    0.535283
     0.539807    0.543580    0.551259    0.558383    0.558872    0.567856

 Minimum Search - Taking Simple RFO Step
 Searching for Lamda that Minimizes Along All modes
 Value Taken    Lamda =  -0.05554968
 Calculated Step too Large.  Step scaled by  0.680276
 Step Taken.  Stepsize is  0.300000

                             Maximum     Tolerance    Cnvgd?
         Gradient           0.048766      0.000300      NO
         Displacement       0.084193      0.001200      NO
         Energy change     *********      0.000001      NO


 New Cartesian Coordinates Obtained by Inverse Iteration

 Displacement from previous Coordinates is:  1.496492
 ----------------------------------------------------------------
             Standard Nuclear Orientation (Angstroms)
    I     Atom           X                Y                Z
 ----------------------------------------------------------------
    1      C       4.3635874844     0.4200119221    -0.1083074065
    2      C       5.5340911154     1.1200465874    -0.1874369579
    3      C       6.8392427262     0.4458028952    -0.1485987674
    4      C       8.0797023249     1.0305317451    -0.2250089001
    5      C       9.2700170089     0.1461490408    -0.1611441608
    6      C      10.5621101955     0.5807878187    -0.2026959729
    7      H       5.4987344905     2.2011400625    -0.2816922926
    8      H       6.7931812802    -0.6417044785    -0.0470310163
    9      H       9.0634137840    -0.9137376949    -0.0275675930
   10      C      11.7999993158    -0.2548761586    -0.0987076746
   11      H      10.7281336645     1.6562259568    -0.2237881376
   12      C      11.9444631515    -1.5116936758    -0.6546303480
   13      C      13.2292922214    -2.3266284561    -0.5034959769
   14      C      14.4538014282    -1.4845347686    -0.1084947728
   15      H      13.4658564640    -2.8455640399    -1.4555157314
   16      H      13.0440838246    -3.1188561822     0.2537412763
   17      C      14.0765119254    -0.5940647317     1.0772253144
   18      H      14.7781258247    -0.8627823669    -0.9646861204
   19      H      15.2978213885    -2.1562126999     0.1474712853
   20      C      12.9581579375     0.4265364524     0.6965618600
   21      H      14.9581600646    -0.0491794336     1.4715557586
   22      H      13.7151416256    -1.2576611781     1.8915355604
   23      C      10.9185214973    -2.2144073176    -1.5319350534
   24      H      10.0670399188    -1.5923901599    -1.8391929092
   25      H      10.5477743314    -3.1368708507    -1.0428784783
   26      H      11.4022494294    -2.5163531080    -2.4844119860
   27      C      13.5583747613     1.5848210951    -0.1575293814
   28      H      13.9349967995     1.2241132358    -1.1320639646
   29      H      14.3975282218     2.0711484542     0.3784650042
   30      H      12.8069124479     2.3685253165    -0.3671652321
   31      C      12.4291371816     1.0243958228     2.0365456529
   32      H      11.9733583636     0.2362949602     2.6666104013
   33      H      11.6667942004     1.8082183046     1.8725536830
   34      H      13.2581285554     1.4873936326     2.6075997659
   35      C       3.0090008152     1.0162152108    -0.1380675595
   36      C       1.9297543191     0.1691347455    -0.0540483876
   37      C       0.5085752661     0.5359544631    -0.0647230987
   38      C      -0.4817487162    -0.4018746145     0.0191765187
   39      H       0.2203680479     1.5827151139    -0.1425092174
   40      H       2.1277438125    -0.9025610021     0.0298548518
   41      H       4.4135619848    -0.6678053422    -0.0159421123
   42      C      -1.9047016799    -0.0410555355     0.0087526010
   43      C      -2.9600714909    -0.9192923142     0.0837463851
   44      C      -4.3269531657    -0.3537120060     0.0596980987
   45      C      -5.4980020437    -1.0539237757     0.1171703470
   46      H      -5.4893176335    -2.1372846847     0.1864939728
   47      H      -4.3873141178     0.7354621699    -0.0117784476
   48      C      -6.8027987314    -0.3775602622     0.0880854831
   49      C      -8.0325364351    -0.9907653084     0.1368639353
   50      H      -6.7663327465     0.7125849267     0.0215974415
   51      C      -9.2353786890    -0.1186917273     0.0974114455
   52      H      -0.2065394172    -1.4538777982     0.0955819000
   53      H      -2.1206963143     1.0273643718    -0.0666240644
   54      C     -10.5286109425    -0.5580927835     0.1378843042
   55      H      -9.0011267544     0.9332297578     0.0347068414
   56      C     -11.8151379292     0.2066856592     0.1084124288
   57      H     -10.6585854905    -1.6281718417     0.2070242721
   58      C     -11.9418928999     1.5814912536     0.0063572353
   59      C     -13.3471515584     2.1866932148    -0.1112605961
   60      C     -14.0956298375     1.3950348434    -1.1971855381
   61      H     -13.2946486769     3.2568926090    -0.3886668054
   62      H     -13.9142626082     2.1577143925     0.8361704308
   63      C     -13.1381153616    -0.6246223817     0.2132005007
   64      C     -10.7802064880     2.5555446552    -0.0991024176
   65      H     -11.1329264486     3.5985771441    -0.1969881969
   66      H     -10.1644991475     2.3495336402    -0.9962552789
   67      H     -10.1527203522     2.5283501494     0.8131365077
   68      C     -13.6569392147    -0.5087534875     1.6860015149
   69      H     -13.8375433084     0.5202247440     2.0311308480
   70      H     -12.9118098551    -0.9427256363     2.3820645834
   71      H     -14.6039925365    -1.0706076915     1.8157563557
   72      C     -12.9764433465    -2.1512706324    -0.0567920881
   73      H     -12.5537697118    -2.3378136708    -1.0631765582
   74      H     -13.9650523340    -2.6487925821    -0.0097633648
   75      H     -12.3396534748    -2.6520041986     0.6967025045
   76      C     -14.2229295592    -0.1022012280    -0.8064421995
   77      H     -13.4791183296     1.4718130618    -2.1172580290
   78      H     -15.0890565142     1.8196554276    -1.4434793815
   79      H     -14.1834244217    -0.6763926436    -1.7550365204
   80      H     -15.2213335376    -0.3120402055    -0.3705678846
   81      C      -8.1430349143    -2.5092525971     0.2276893503
   82      H      -9.1770053930    -2.8844674570     0.2594137074
   83      H      -7.6431159217    -2.8780853599     1.1438790583
   84      H      -7.6603816386    -2.9834032637    -0.6484662380
   85      C      -2.7277352180    -2.4214804797     0.1875442147
   86      H      -3.6579325057    -3.0075752796     0.2406162948
   87      H      -2.1446180677    -2.6599525794     1.0975892257
   88      H      -2.1663195826    -2.7872765766    -0.6933347718
   89      C       2.8902312598     2.5267925545    -0.2602201146
   90      H       1.8527600313     2.8905758142    -0.2753747498
   91      H       3.3714583298     2.8746815654    -1.1952108299
   92      H       3.3965289888     3.0208128947     0.5921716088
   93      C       8.2995674786     2.5273081213    -0.3728475601
   94      H       7.3694412767     3.1119911503    -0.4195876127
   95      H       8.8657798782     2.7408121441    -1.3005585639
   96      H       8.8838703099     2.9154709145     0.4844990386
 ----------------------------------------------------------------
 Molecular Point Group                 C1    NOp =  1
 Largest Abelian Subgroup              C1    NOp =  1
 Nuclear Repulsion Energy =  3588.7568024034 hartrees
 There are      148 alpha and      148 beta electrons
 Applying Cartesian multipole field
    Component          Value
    ---------          -----
     (2,0,0)        1.00000E-12
     (0,2,0)        2.00000E-11
     (0,0,2)       -3.00000E-11
 Nucleus-field energy     =     0.0000001379 hartrees
 Requested basis set is 6-31G
 There are 232 shells and 472 basis functions
 A cutoff of  1.0D-11 yielded   8201 shell pairs
 There are     37463 function pairs
 Smallest overlap matrix eigenvalue = 1.48E-03
 Guess MOs from SCF MO coefficient file

 -----------------------------------------------------------------------
  General SCF calculation program by
  Eric Jon Sundstrom, Paul Horn, Yuezhi Mao, Dmitri Zuev, Alec White,
  David Stuck, Shaama M.S., Shane Yost, Joonho Lee, David Small,
  Daniel Levine, Susi Lehtola, Hugh Burton, Evgeny Epifanovsky
 -----------------------------------------------------------------------
 Exchange:  B88      Correlation:  LYP
 Using SG-1 standard quadrature grid
 using 4 threads for integral computing
 -------------------------------------------------------
 OpenMP Integral computing Module                
 Release: version 1.0, May 2013, Q-Chem Inc. Pittsburgh 
 -------------------------------------------------------
 -------------------------------------------------------
 OpenMP BLAS3 based DFT computing Module                
 Release: version 1.0, May 2013, Q-Chem Inc. Pittsburgh 
 -------------------------------------------------------
 A restricted SCF calculation will be
 performed using DIIS
 SCF converges when DIIS error is below 1.0e-08
 ---------------------------------------
  Cycle       Energy         DIIS error
 ---------------------------------------
    1   -1556.6416679446      3.80e-04  
    2   -1556.6504144689      8.82e-05  
    3   -1556.6498275694      1.54e-04  
    4   -1556.6505437439      5.72e-05  
    5   -1556.6506701090      1.49e-05  
    6   -1556.6506769955      8.68e-06  
    7   -1556.6506795652      1.78e-06  
    8   -1556.6506796620      5.83e-07  
    9   -1556.6506796740      2.17e-07  
   10   -1556.6506796757      7.86e-08  
   11   -1556.6506796759      3.04e-08  
   12   -1556.6506796759      1.32e-08  
   13   -1556.6506796759      5.28e-09  Convergence criterion met
 ---------------------------------------
 SCF time:   CPU 356.03s  wall 89.00s 
 SCF   energy in the final basis set =    -1556.6506796759
 Total energy in the final basis set =    -1556.6506796759
 
 --------------------------------------------------------------
 
                    Orbital Energies (a.u.)
 --------------------------------------------------------------
 
 Alpha MOs
 -- Occupied --
 -9.933  -9.930  -9.929  -9.928  -9.927  -9.926  -9.921  -9.921
 -9.918  -9.917  -9.917  -9.917  -9.916  -9.916  -9.916  -9.915
 -9.915  -9.914  -9.914  -9.914  -9.913  -9.913  -9.912  -9.912
 -9.912  -9.912  -9.912  -9.911  -9.911  -9.911  -9.911  -9.910
 -9.908  -9.908  -9.906  -9.905  -9.904  -9.903  -9.901  -9.899
 -0.754  -0.754  -0.742  -0.737  -0.729  -0.723  -0.700  -0.695
 -0.695  -0.688  -0.681  -0.668  -0.658  -0.641  -0.639  -0.621
 -0.611  -0.610  -0.607  -0.602  -0.601  -0.598  -0.594  -0.591
 -0.588  -0.555  -0.539  -0.526  -0.513  -0.503  -0.496  -0.489
 -0.480  -0.479  -0.471  -0.466  -0.458  -0.447  -0.435  -0.434
 -0.421  -0.414  -0.411  -0.408  -0.404  -0.398  -0.396  -0.389
 -0.385  -0.382  -0.376  -0.371  -0.367  -0.365  -0.364  -0.363
 -0.362  -0.362  -0.361  -0.358  -0.356  -0.354  -0.351  -0.345
 -0.340  -0.338  -0.336  -0.334  -0.332  -0.331  -0.330  -0.328
 -0.326  -0.321  -0.319  -0.318  -0.317  -0.314  -0.309  -0.308
 -0.305  -0.300  -0.297  -0.295  -0.293  -0.290  -0.288  -0.284
 -0.284  -0.283  -0.279  -0.276  -0.275  -0.270  -0.268  -0.265
 -0.256  -0.254  -0.252  -0.246  -0.243  -0.240  -0.225  -0.207
 -0.191  -0.173  -0.153  -0.135
 -- Virtual --
 -0.084  -0.057  -0.034  -0.008   0.011   0.032   0.052   0.058
  0.061   0.062   0.066   0.068   0.072   0.074   0.080   0.080
  0.084   0.085   0.086   0.089   0.092   0.093   0.095   0.099
  0.100   0.102   0.107   0.112   0.112   0.116   0.117   0.123
  0.124   0.126   0.130   0.132   0.134   0.138   0.139   0.142
  0.145   0.148   0.152   0.152   0.155   0.156   0.159   0.160
  0.161   0.163   0.165   0.166   0.167   0.170   0.173   0.173
  0.177   0.181   0.185   0.187   0.188   0.190   0.192   0.197
  0.197   0.199   0.200   0.204   0.207   0.209   0.212   0.214
  0.217   0.219   0.222   0.224   0.225   0.229   0.236   0.240
  0.248   0.252   0.253   0.257   0.258   0.263   0.268   0.282
  0.285   0.310   0.323   0.333   0.341   0.347   0.362   0.364
  0.371   0.371   0.382   0.382   0.399   0.402   0.415   0.417
  0.420   0.428   0.451   0.458   0.479   0.482   0.486   0.488
  0.488   0.492   0.493   0.497   0.499   0.503   0.504   0.509
  0.512   0.519   0.523   0.523   0.527   0.530   0.532   0.535
  0.536   0.538   0.541   0.545   0.547   0.553   0.554   0.554
  0.556   0.561   0.562   0.566   0.571   0.578   0.584   0.588
  0.594   0.601   0.602   0.607   0.607   0.610   0.612   0.613
  0.616   0.620   0.624   0.625   0.629   0.635   0.636   0.638
  0.642   0.646   0.648   0.656   0.660   0.667   0.670   0.676
  0.682   0.686   0.687   0.692   0.696   0.698   0.700   0.703
  0.708   0.709   0.711   0.716   0.720   0.727   0.728   0.729
  0.732   0.735   0.737   0.750   0.755   0.758   0.768   0.768
  0.773   0.778   0.780   0.785   0.789   0.793   0.799   0.800
  0.803   0.807   0.813   0.820   0.825   0.830   0.835   0.841
  0.844   0.845   0.851   0.854   0.858   0.861   0.866   0.875
  0.878   0.878   0.879   0.882   0.886   0.887   0.889   0.889
  0.892   0.896   0.897   0.902   0.903   0.912   0.912   0.917
  0.918   0.921   0.921   0.922   0.926   0.931   0.931   0.934
  0.937   0.943   0.945   0.946   0.948   0.950   0.951   0.958
  0.963   0.968   0.969   0.973   0.979   0.981   0.987   0.988
  0.990   1.006   1.011   1.026   1.028   1.043   1.050   1.055
  1.057   1.061   1.074   1.083   1.086   1.088   1.096   1.113
  1.124   1.125   1.138   1.147   1.155   1.157   1.169   1.176
  1.189   1.190   1.193   1.203   1.204   1.214   1.226   1.241
  1.243   1.258   1.262   1.277   1.282   1.288   1.291   1.301
  1.309   1.325   1.339   1.349   1.357   1.400   1.410   1.429
  1.433   1.443   1.463   1.479   1.504   1.526   1.534   1.540
  1.554   1.566   1.572   1.591   1.608   1.617   1.657   1.662
  1.693   1.732   1.820   2.006
 --------------------------------------------------------------
 
          Ground-State Mulliken Net Atomic Charges

     Atom                 Charge (a.u.)
  ----------------------------------------
      1 C                    -0.140745
      2 C                    -0.078653
      3 C                    -0.162633
      4 C                     0.148291
      5 C                    -0.116164
      6 C                    -0.155874
      7 H                     0.094563
      8 H                     0.084958
      9 H                     0.098175
     10 C                     0.099190
     11 H                     0.096091
     12 C                     0.087364
     13 C                    -0.274680
     14 C                    -0.215655
     15 H                     0.109557
     16 H                     0.120378
     17 C                    -0.205124
     18 H                     0.114171
     19 H                     0.098674
     20 C                     0.004421
     21 H                     0.096081
     22 H                     0.104658
     23 C                    -0.439045
     24 H                     0.138815
     25 H                     0.126235
     26 H                     0.120898
     27 C                    -0.367880
     28 H                     0.121469
     29 H                     0.112646
     30 H                     0.117032
     31 C                    -0.357258
     32 H                     0.117737
     33 H                     0.110298
     34 H                     0.108557
     35 C                     0.153237
     36 C                    -0.167506
     37 C                    -0.079090
     38 C                    -0.082400
     39 H                     0.093249
     40 H                     0.086578
     41 H                     0.087528
     42 C                    -0.164635
     43 C                     0.147334
     44 C                    -0.136134
     45 C                    -0.078640
     46 H                     0.094684
     47 H                     0.087148
     48 C                    -0.165637
     49 C                     0.145204
     50 H                     0.084471
     51 C                    -0.112229
     52 H                     0.092490
     53 H                     0.086032
     54 C                    -0.155931
     55 H                     0.088467
     56 C                     0.126848
     57 H                     0.084833
     58 C                     0.067560
     59 C                    -0.275674
     60 C                    -0.210259
     61 H                     0.103120
     62 H                     0.125214
     63 C                    -0.001446
     64 C                    -0.442996
     65 H                     0.115381
     66 H                     0.144475
     67 H                     0.144176
     68 C                    -0.364383
     69 H                     0.123197
     70 H                     0.117617
     71 H                     0.108440
     72 C                    -0.376466
     73 H                     0.119137
     74 H                     0.113370
     75 H                     0.116712
     76 C                    -0.211541
     77 H                     0.112973
     78 H                     0.100536
     79 H                     0.109726
     80 H                     0.102809
     81 C                    -0.455837
     82 H                     0.132436
     83 H                     0.140097
     84 H                     0.140367
     85 C                    -0.453420
     86 H                     0.129012
     87 H                     0.141663
     88 H                     0.141628
     89 C                    -0.452060
     90 H                     0.129811
     91 H                     0.139306
     92 H                     0.139472
     93 C                    -0.452470
     94 H                     0.128298
     95 H                     0.139272
     96 H                     0.138297
  ----------------------------------------
  Sum of atomic charges =    -0.000000

 -----------------------------------------------------------------
                    Cartesian Multipole Moments
 -----------------------------------------------------------------
    Charge (ESU x 10^10)
                -0.0000
    Dipole Moment (Debye)
         X      -0.2523      Y       0.0601      Z      -0.1527
       Tot       0.3010
    Quadrupole Moments (Debye-Ang)
        XX    -216.4504     XY      -1.3635     YY    -232.6807
        XZ       0.0895     YZ      -1.3549     ZZ    -257.2045
    Octopole Moments (Debye-Ang^2)
       XXX     -77.3957    XXY       6.9820    XYY      -4.9295
       YYY       5.0988    XXZ     -12.1554    XYZ       7.7311
       YYZ      -0.8594    XZZ       5.1410    YZZ      -1.8480
       ZZZ      -2.1742
    Hexadecapole Moments (Debye-Ang^3)
      XXXX -140530.9409   XXXY    -795.2595   XXYY  -24471.9438
      XYYY     -24.7605   YYYY   -3627.2684   XXXZ     160.7852
      XXYZ      -6.8949   XYYZ     -11.0917   YYYZ     -17.0884
      XXZZ  -25383.8428   XYZZ     -34.1145   YYZZ    -784.1618
      XZZZ      26.6977   YZZZ      -7.5373   ZZZZ   -1059.7780
 -----------------------------------------------------------------
 Calculating analytic gradient of the SCF energy
 Gradient of SCF Energy
            1           2           3           4           5           6
    1   0.0231245  -0.0229743   0.0215959  -0.0145524   0.0137096  -0.0133862
    2  -0.0085086   0.0118759  -0.0115841   0.0076682  -0.0125583   0.0109202
    3   0.0005138  -0.0007103   0.0004688   0.0000848  -0.0002983  -0.0016300
            7           8           9          10          11          12
    1  -0.0016933  -0.0000745   0.0017954   0.0077720  -0.0017094   0.0011351
    2  -0.0044702   0.0027881   0.0033988   0.0024234  -0.0035293  -0.0083455
    3   0.0003608  -0.0002729  -0.0002966   0.0009373   0.0019330   0.0027105
           13          14          15          16          17          18
    1  -0.0012236  -0.0055287   0.0046193  -0.0026019  -0.0020999  -0.0003350
    2   0.0009767   0.0040085   0.0016771   0.0010973   0.0006951   0.0017003
    3   0.0046334  -0.0008166  -0.0015049   0.0006747  -0.0021896  -0.0001153
           19          20          21          22          23          24
    1   0.0003402   0.0000945   0.0023307   0.0000412  -0.0010015   0.0012471
    2  -0.0021317  -0.0017966  -0.0003658  -0.0033662  -0.0019550  -0.0005467
    3   0.0005623  -0.0050651   0.0006493  -0.0002993   0.0067126  -0.0051768
           25          26          27          28          29          30
    1   0.0018380  -0.0013181  -0.0031890  -0.0000391   0.0012754  -0.0006505
    2  -0.0005421   0.0039798  -0.0047581  -0.0002552   0.0008512   0.0013433
    3   0.0019806  -0.0027858   0.0038503  -0.0016912   0.0004935  -0.0003517
           31          32          33          34          35          36
    1   0.0038475  -0.0008106  -0.0011410   0.0006463  -0.0205098   0.0271823
    2  -0.0034190  -0.0016083   0.0017139   0.0017109   0.0053771  -0.0062106
    3  -0.0047825   0.0010237  -0.0000012   0.0010815  -0.0001846   0.0001512
           37          38          39          40          41          42
    1  -0.0299325   0.0310074  -0.0007197  -0.0007579   0.0011859  -0.0280808
    2   0.0052465  -0.0038026  -0.0044697   0.0026663   0.0028229   0.0047072
    3   0.0000102  -0.0001037   0.0003613  -0.0003054  -0.0003001   0.0000374
           43          44          45          46          47          48
    1   0.0249481  -0.0255866   0.0271466   0.0004281  -0.0010936  -0.0237277
    2  -0.0052914   0.0094705  -0.0121182   0.0046202  -0.0027669   0.0105176
    3  -0.0000107  -0.0004134   0.0005246  -0.0002743   0.0002056  -0.0005665
           49          50          51          52          53          54
    1   0.0209843   0.0002006  -0.0186230   0.0000866   0.0007556   0.0213484
    2  -0.0079440  -0.0027963   0.0143072   0.0033504  -0.0026556  -0.0138293
    3   0.0003672   0.0001767  -0.0008670  -0.0002834   0.0002347  -0.0006261
           55          56          57          58          59          60
    1  -0.0014336  -0.0134362   0.0017784   0.0026471  -0.0018671   0.0025629
    2  -0.0053994   0.0067981   0.0057514  -0.0016548  -0.0061305   0.0021403
    3   0.0003524   0.0047489  -0.0002994  -0.0029705   0.0010810   0.0078230
           61          62          63          64          65          66
    1  -0.0024984  -0.0001286   0.0000927   0.0027383   0.0016781  -0.0035984
    2   0.0020477   0.0005925   0.0020114  -0.0047387   0.0023353   0.0002204
    3  -0.0001655  -0.0022258  -0.0028837  -0.0016958  -0.0002033  -0.0038089
           67          68          69          70          71          72
    1  -0.0038483   0.0022112  -0.0000585   0.0012641  -0.0014612  -0.0024358
    2   0.0014306   0.0028807  -0.0013900   0.0001557  -0.0005406   0.0039438
    3   0.0039378  -0.0087234   0.0026324   0.0018221   0.0008184   0.0026042
           73          74          75          76          77          78
    1   0.0002332  -0.0011223   0.0009822   0.0064619   0.0035589  -0.0015212
    2   0.0006775  -0.0022080  -0.0010583  -0.0001927  -0.0001599  -0.0005346
    3  -0.0022814   0.0010406   0.0016597   0.0057673  -0.0006055  -0.0028546
           79          80          81          82          83          84
    1  -0.0019889  -0.0014337  -0.0004586  -0.0001805  -0.0004191  -0.0004952
    2   0.0033723  -0.0014703   0.0024868  -0.0026885   0.0010939   0.0008275
    3  -0.0046440   0.0000173  -0.0002060   0.0002549   0.0023931  -0.0024452
           85          86          87          88          89          90
    1  -0.0003294   0.0000107  -0.0004947  -0.0005802  -0.0011774   0.0002869
    2   0.0022143  -0.0021262   0.0010780   0.0007468  -0.0021711   0.0023073
    3  -0.0001448   0.0001256   0.0023245  -0.0024747   0.0001933  -0.0002408
           91          92          93          94          95          96
    1  -0.0004244  -0.0003848  -0.0014914   0.0008881  -0.0007594  -0.0006932
    2  -0.0011677  -0.0007768  -0.0014149   0.0022515  -0.0011405  -0.0006898
    3  -0.0023096   0.0024501   0.0004634  -0.0001944  -0.0023753   0.0024262
 Max gradient component =       3.101E-02
 RMS gradient           =       6.736E-03
 Gradient time:  CPU 53.57 s  wall 13.46 s
 Geometry Optimization Parameters
   NAtoms,    NIC,     NZ,  NCons,   NDum,   NFix, NCnnct, MaxDiis
       96     697       0       0       0       0       0       0

 Cartesian Hessian Update
 Hessian Updated using BFGS Update


** GEOMETRY OPTIMIZATION IN DELOCALIZED INTERNAL COORDINATES **
   Searching for a Minimum

   Optimization Cycle:   2

                       Coordinates (Angstroms)
     ATOM                X               Y               Z
      1  C         4.3635874844    0.4200119221   -0.1083074065
      2  C         5.5340911154    1.1200465874   -0.1874369579
      3  C         6.8392427262    0.4458028952   -0.1485987674
      4  C         8.0797023249    1.0305317451   -0.2250089001
      5  C         9.2700170089    0.1461490408   -0.1611441608
      6  C        10.5621101955    0.5807878187   -0.2026959729
      7  H         5.4987344905    2.2011400625   -0.2816922926
      8  H         6.7931812802   -0.6417044785   -0.0470310163
      9  H         9.0634137840   -0.9137376949   -0.0275675930
     10  C        11.7999993158   -0.2548761586   -0.0987076746
     11  H        10.7281336645    1.6562259568   -0.2237881376
     12  C        11.9444631515   -1.5116936758   -0.6546303480
     13  C        13.2292922214   -2.3266284561   -0.5034959769
     14  C        14.4538014282   -1.4845347686   -0.1084947728
     15  H        13.4658564640   -2.8455640399   -1.4555157314
     16  H        13.0440838246   -3.1188561822    0.2537412763
     17  C        14.0765119254   -0.5940647317    1.0772253144
     18  H        14.7781258247   -0.8627823669   -0.9646861204
     19  H        15.2978213885   -2.1562126999    0.1474712853
     20  C        12.9581579375    0.4265364524    0.6965618600
     21  H        14.9581600646   -0.0491794336    1.4715557586
     22  H        13.7151416256   -1.2576611781    1.8915355604
     23  C        10.9185214973   -2.2144073176   -1.5319350534
     24  H        10.0670399188   -1.5923901599   -1.8391929092
     25  H        10.5477743314   -3.1368708507   -1.0428784783
     26  H        11.4022494294   -2.5163531080   -2.4844119860
     27  C        13.5583747613    1.5848210951   -0.1575293814
     28  H        13.9349967995    1.2241132358   -1.1320639646
     29  H        14.3975282218    2.0711484542    0.3784650042
     30  H        12.8069124479    2.3685253165   -0.3671652321
     31  C        12.4291371816    1.0243958228    2.0365456529
     32  H        11.9733583636    0.2362949602    2.6666104013
     33  H        11.6667942004    1.8082183046    1.8725536830
     34  H        13.2581285554    1.4873936326    2.6075997659
     35  C         3.0090008152    1.0162152108   -0.1380675595
     36  C         1.9297543191    0.1691347455   -0.0540483876
     37  C         0.5085752661    0.5359544631   -0.0647230987
     38  C        -0.4817487162   -0.4018746145    0.0191765187
     39  H         0.2203680479    1.5827151139   -0.1425092174
     40  H         2.1277438125   -0.9025610021    0.0298548518
     41  H         4.4135619848   -0.6678053422   -0.0159421123
     42  C        -1.9047016799   -0.0410555355    0.0087526010
     43  C        -2.9600714909   -0.9192923142    0.0837463851
     44  C        -4.3269531657   -0.3537120060    0.0596980987
     45  C        -5.4980020437   -1.0539237757    0.1171703470
     46  H        -5.4893176335   -2.1372846847    0.1864939728
     47  H        -4.3873141178    0.7354621699   -0.0117784476
     48  C        -6.8027987314   -0.3775602622    0.0880854831
     49  C        -8.0325364351   -0.9907653084    0.1368639353
     50  H        -6.7663327465    0.7125849267    0.0215974415
     51  C        -9.2353786890   -0.1186917273    0.0974114455
     52  H        -0.2065394172   -1.4538777982    0.0955819000
     53  H        -2.1206963143    1.0273643718   -0.0666240644
     54  C       -10.5286109425   -0.5580927835    0.1378843042
     55  H        -9.0011267544    0.9332297578    0.0347068414
     56  C       -11.8151379292    0.2066856592    0.1084124288
     57  H       -10.6585854905   -1.6281718417    0.2070242721
     58  C       -11.9418928999    1.5814912536    0.0063572353
     59  C       -13.3471515584    2.1866932148   -0.1112605961
     60  C       -14.0956298375    1.3950348434   -1.1971855381
     61  H       -13.2946486769    3.2568926090   -0.3886668054
     62  H       -13.9142626082    2.1577143925    0.8361704308
     63  C       -13.1381153616   -0.6246223817    0.2132005007
     64  C       -10.7802064880    2.5555446552   -0.0991024176
     65  H       -11.1329264486    3.5985771441   -0.1969881969
     66  H       -10.1644991475    2.3495336402   -0.9962552789
     67  H       -10.1527203522    2.5283501494    0.8131365077
     68  C       -13.6569392147   -0.5087534875    1.6860015149
     69  H       -13.8375433084    0.5202247440    2.0311308480
     70  H       -12.9118098551   -0.9427256363    2.3820645834
     71  H       -14.6039925365   -1.0706076915    1.8157563557
     72  C       -12.9764433465   -2.1512706324   -0.0567920881
     73  H       -12.5537697118   -2.3378136708   -1.0631765582
     74  H       -13.9650523340   -2.6487925821   -0.0097633648
     75  H       -12.3396534748   -2.6520041986    0.6967025045
     76  C       -14.2229295592   -0.1022012280   -0.8064421995
     77  H       -13.4791183296    1.4718130618   -2.1172580290
     78  H       -15.0890565142    1.8196554276   -1.4434793815
     79  H       -14.1834244217   -0.6763926436   -1.7550365204
     80  H       -15.2213335376   -0.3120402055   -0.3705678846
     81  C        -8.1430349143   -2.5092525971    0.2276893503
     82  H        -9.1770053930   -2.8844674570    0.2594137074
     83  H        -7.6431159217   -2.8780853599    1.1438790583
     84  H        -7.6603816386   -2.9834032637   -0.6484662380
     85  C        -2.7277352180   -2.4214804797    0.1875442147
     86  H        -3.6579325057   -3.0075752796    0.2406162948
     87  H        -2.1446180677   -2.6599525794    1.0975892257
     88  H        -2.1663195826   -2.7872765766   -0.6933347718
     89  C         2.8902312598    2.5267925545   -0.2602201146
     90  H         1.8527600313    2.8905758142   -0.2753747498
     91  H         3.3714583298    2.8746815654   -1.1952108299
     92  H         3.3965289888    3.0208128947    0.5921716088
     93  C         8.2995674786    2.5273081213   -0.3728475601
     94  H         7.3694412767    3.1119911503   -0.4195876127
     95  H         8.8657798782    2.7408121441   -1.3005585639
     96  H         8.8838703099    2.9154709145    0.4844990386
   Point Group: c1    Number of degrees of freedom:   282


   Energy is  -1556.650679676

 Hessian Updated using BFGS Update

234 Hessian modes will be used to form the next step
  Hessian Eigenvalues:
     0.002000    0.002155    0.002694    0.002777    0.003420    0.004040
     0.005686    0.006479    0.006847    0.006857    0.006911    0.006929
     0.007857    0.007982    0.008144    0.008229    0.008450    0.009213
     0.009387    0.009430    0.009599    0.010037    0.010698    0.010729
     0.010767    0.010851    0.010973    0.011550    0.012641    0.013168
     0.013264    0.013615    0.013717    0.014116    0.017140    0.018860
     0.019075    0.019407    0.019514    0.019528    0.019545    0.019578
     0.019615    0.019826    0.019973    0.020129    0.020342    0.020425
     0.027384    0.027980    0.028007    0.028075    0.028363    0.028604
     0.029096    0.029518    0.029550    0.030093    0.031020    0.031234
     0.032065    0.040129    0.045228    0.046865    0.047427    0.048981
     0.049491    0.050015    0.052287    0.052528    0.053487    0.053715
     0.053911    0.054274    0.054563    0.054950    0.054979    0.055241
     0.055731    0.060444    0.063395    0.065586    0.067344    0.067655
     0.067994    0.068030    0.068154    0.068830    0.072343    0.073214
     0.073576    0.073732    0.074216    0.074284    0.075047    0.075093
     0.077276    0.078101    0.081989    0.082394    0.084125    0.088084
     0.095386    0.097713    0.099487    0.119431    0.120330    0.131416
     0.133176    0.152617    0.159018    0.159614    0.159908    0.159999
     0.160000    0.165474    0.167239    0.185463    0.192751    0.206354
     0.213186    0.220000    0.220000    0.220028    0.220116    0.224692
     0.227387    0.246665    0.249118    0.249630    0.249992    0.249994
     0.250000    0.250000    0.250000    0.250000    0.252620    0.257988
     0.260615    0.264505    0.270660    0.272091    0.274025    0.275835
     0.277555    0.279830    0.283086    0.288313    0.291001    0.294912
     0.296983    0.300102    0.303216    0.305561    0.306044    0.306345
     0.306513    0.309943    0.315386    0.316503    0.319914    0.321086
     0.321541    0.322589    0.323444    0.323605    0.323674    0.323872
     0.323934    0.324047    0.324101    0.324145    0.324385    0.324471
     0.324529    0.324599    0.324809    0.325029    0.325387    0.325404
     0.325426    0.325460    0.325505    0.325522    0.325730    0.325779
     0.325803    0.325806    0.325845    0.326021    0.326299    0.326351
     0.326381    0.326637    0.326994    0.327186    0.327392    0.328420
     0.333290    0.334622    0.334907    0.335394    0.335868    0.336399
     0.336652    0.337012    0.337468    0.338351    0.339329    0.350127
     0.350199    0.350290    0.350355    0.350420    0.350812    0.353243
     0.356278    0.358441    0.359381    0.362771    0.363344    0.377838
     0.387639    0.456113    0.469492    0.533711    0.534170    0.535194
     0.539487    0.542744    0.552731    0.557904    0.560420    0.571057

 Minimum Search - Taking Simple RFO Step
 Searching for Lamda that Minimizes Along All modes
 Value Taken    Lamda =  -0.02162256
 Calculated Step too Large.  Step scaled by  0.790183
 Step Taken.  Stepsize is  0.300000

                             Maximum     Tolerance    Cnvgd?
         Gradient           0.028548      0.000300      NO
         Displacement       0.085952      0.001200      NO
         Energy change     -0.027669      0.000001      NO


[...]
     57  H       -10.7549253400   -1.6235293305    0.7546275118
     58  C       -11.8665538016    1.5664275640    0.3746959340
     59  C       -13.0505150750    2.4111607647   -0.1024990706
     60  C       -13.9424502223    1.6911564792   -1.1353024615
     61  H       -12.6585946525    3.3601279880   -0.5215965090
     62  H       -13.6622842567    2.7119104610    0.7760902176
     63  C       -12.9567901703   -0.6081485755   -0.4875979018
     64  C       -10.8425659005    2.3800188666    1.1581689099
     65  H       -11.3679934336    3.0946095406    1.8204846375
     66  H       -10.2001743556    2.9907710521    0.4933992430
     67  H       -10.1844180559    1.7536068306    1.7766457899
     68  C       -13.3319782729   -1.8315929363    0.4179695933
     69  H       -13.5243154394   -1.5092377428    1.4557079335
     70  H       -12.5493649684   -2.6079467230    0.4351626536
     71  H       -14.2521399484   -2.3035980957    0.0300058422
     72  C       -12.5327713545   -1.1429761912   -1.8976097854
     73  H       -12.3428931164   -0.3152701129   -2.6020809207
     74  H       -13.3272598264   -1.7830699027   -2.3226861865
     75  H       -11.6072490448   -1.7393364842   -1.8320283920
     76  C       -14.2480845065    0.2693921766   -0.6209823216
     77  H       -13.4190433686    1.6364833340   -2.1078335785
     78  H       -14.8750972907    2.2588406130   -1.3045601978
     79  H       -14.9638744619   -0.2529620145   -1.2820892431
     80  H       -14.7320532175    0.3497167823    0.3724149510
     81  C        -8.2906923630   -2.4392122619    1.1218142466
     82  H        -8.8292232532   -2.4303445505    2.0871823872
     83  H        -7.3427526201   -2.9737994205    1.2715612378
     84  H        -8.9021357357   -3.0368584365    0.4206560624
     85  C        -2.8532292611   -2.3986529811    0.9991689509
     86  H        -3.4030585094   -3.1099158967    0.3567115371
     87  H        -3.2607816164   -2.5066167447    2.0215551257
     88  H        -1.8032668845   -2.7205566211    1.0260141234
     89  C         2.8070171490    2.3937724639   -0.7074479975
     90  H         1.7568755372    2.7157592841   -0.7191118400
     91  H         3.2110560091    2.5330576012   -1.7272805294
     92  H         3.3587127342    3.0854399246   -0.0453201526
     93  C         8.2405284566    2.4546666688   -0.8523019100
     94  H         7.2901661714    2.9897713638   -0.9840848235
     95  H         8.7932959428    2.5077367924   -1.8079498446
     96  H         8.8359000190    3.0145328705   -0.1070782018

Z-matrix Print:
$molecule
0 1
C 
C  1 1.379136
C  1 1.476873 2 123.533953
H  3 1.094239 1 115.601539 2 147.234933 0
C  3 1.376595 1 127.226300 2 -37.327167 0
H  5 1.095513 3 118.731147 1 -0.484055 0
C  5 1.456893 3 126.138955 1 -178.489213 0
C  7 1.392351 5 118.410923 3 178.656656 0
H  8 1.098636 7 116.320795 5 -0.160459 0
C  8 1.435138 7 128.361533 5 179.762726 0
H  10 1.093817 8 118.331645 7 -0.003108 0
C  10 1.387236 8 123.081868 7 -179.904632 0
H  12 1.098358 10 117.321272 8 0.358363 0
C  12 1.444107 10 126.830179 8 -179.677025 0
C  14 1.398547 12 118.565700 10 -179.203158 0
H  15 1.098723 14 116.169773 12 0.170009 0
C  15 1.428521 14 128.330348 12 -179.933486 0
H  17 1.096103 15 118.832484 14 0.413567 0
C  17 1.392248 15 123.743344 14 -179.594472 0
H  19 1.096107 17 117.379345 15 0.243360 0
C  19 1.428575 17 123.822392 15 -179.532798 0
H  21 1.098693 19 115.525898 17 0.557192 0
C  21 1.398453 19 128.259460 17 -179.763110 0
C  23 1.444235 21 118.636278 19 -179.018064 0
H  24 1.098405 23 115.898603 21 0.025211 0
C  24 1.387144 23 126.764463 21 179.723438 0
H  26 1.093842 24 118.529438 23 0.386472 0
C  26 1.435264 24 123.123653 23 -179.459067 0
H  28 1.098696 26 115.280673 24 0.629463 0
C  28 1.391829 26 128.394886 24 -179.620033 0
C  30 1.457986 28 118.422564 26 -179.387305 0
H  31 1.095367 30 115.146991 28 -0.191063 0
C  31 1.375810 30 126.092170 28 -178.210268 0
H  33 1.096099 31 117.067521 30 3.583124 0
C  33 1.477284 31 128.000132 30 179.386969 0
C  35 1.378594 33 123.852074 31 40.536713 0
C  30 1.524225 28 122.830495 26 0.572781 0
H  37 1.098586 30 112.507589 28 -0.328540 0
H  37 1.105274 30 111.044483 28 -121.245362 0
H  37 1.106018 30 110.986423 28 120.114517 0
C  7 1.524389 5 118.791016 3 -1.325043 0
H  41 1.098543 7 112.498181 5 178.327541 0
H  41 1.105455 7 111.085743 5 -60.756019 0
H  41 1.105743 7 110.954835 5 57.863815 0
C  2 1.524569 1 124.462577 3 -9.366508 0
H  45 1.099120 2 112.781387 1 -17.482649 0
H  45 1.106967 2 109.460793 1 -138.231512 0
H  45 1.107973 2 112.040109 1 104.282742 0
C  14 1.525268 12 118.855596 10 0.598329 0
H  49 1.098528 14 112.503597 12 176.069207 0
H  49 1.104970 14 110.995780 12 55.526128 0
H  49 1.105906 14 111.100909 12 -63.324913 0
C  23 1.525439 21 122.568784 19 0.634402 0
H  53 1.098458 23 112.518247 21 3.668973 0
H  53 1.105072 23 110.958008 21 124.117616 0
H  53 1.105760 23 111.088660 21 -117.060027 0
C  36 1.526004 35 124.058542 33 1.450943 0
H  57 1.099710 36 112.483957 35 20.456481 0
H  57 1.105279 36 109.973718 35 141.518492 0
H  57 1.108520 36 111.950914 35 -100.522250 0
C  2 1.530704 1 122.859266 3 172.425408 0
H  61 1.108956 2 108.463612 1 -136.867653 0
H  61 1.112039 2 109.175347 1 109.047849 0
C  36 1.532790 35 122.784104 33 -179.359126 0
H  64 1.107081 36 108.910405 35 -141.489626 0
H  64 1.112287 36 108.623023 35 104.488231 0
C  61 1.542931 2 113.470902 1 -13.637336 0
H  67 1.104873 61 110.533089 2 169.466478 0
H  67 1.105785 61 109.764864 2 -72.894572 0
C  67 1.542515 61 108.751696 2 47.447790 0
H  70 1.105564 67 111.370118 61 174.590460 0
H  70 1.107933 67 108.583607 61 57.372062 0
C  64 1.546148 36 114.174833 35 -17.950617 0
H  73 1.105061 64 110.280249 36 167.158959 0
H  73 1.105793 64 109.524819 36 -75.725545 0
C  73 1.542605 64 109.603841 36 45.079347 0
H  76 1.106039 73 111.023274 64 176.986373 0
H  76 1.108002 73 108.747427 64 59.961730 0
C  76 1.565307 73 112.758834 64 -60.683514 0
C  79 1.565151 76 107.205954 73 166.870364 0
H  80 1.102379 79 112.357131 76 175.042169 0
H  80 1.103400 79 110.724373 76 -64.466415 0
H  80 1.105170 79 109.873068 76 54.985219 0
C  70 1.566943 67 112.413722 61 -63.206663 0
C  84 1.566514 70 109.733366 67 -78.881288 0
H  85 1.102968 84 110.990230 70 178.295343 0
H  85 1.103372 84 111.416873 70 58.646720 0
H  85 1.105270 84 110.445889 70 -61.656768 0
C  84 1.567685 70 106.798393 67 163.635277 0
H  89 1.102499 84 112.871842 70 169.882208 0
H  89 1.103543 84 110.912824 70 -68.321939 0
H  89 1.104537 84 109.267433 70 50.693633 0
C  79 1.568081 76 109.589365 73 -75.348547 0
H  93 1.102154 79 111.418312 76 60.651056 0
H  93 1.103461 79 111.702639 76 -179.009193 0
H  93 1.104900 79 110.031611 76 -59.649017 0
$end

 
 --------------------------------------------------------------
 
                    Orbital Energies (a.u.)
 --------------------------------------------------------------
 
 Alpha MOs
 -- Occupied --
 -9.932  -9.932  -9.930  -9.930  -9.929  -9.928  -9.922  -9.921
 -9.920  -9.919  -9.918  -9.918  -9.917  -9.917  -9.916  -9.916
 -9.916  -9.916  -9.916  -9.916  -9.914  -9.914  -9.914  -9.913
 -9.913  -9.913  -9.913  -9.913  -9.913  -9.912  -9.910  -9.909
 -9.907  -9.907  -9.905  -9.905  -9.903  -9.903  -9.900  -9.899
 -0.753  -0.753  -0.744  -0.739  -0.731  -0.725  -0.702  -0.695
 -0.694  -0.689  -0.683  -0.669  -0.659  -0.639  -0.637  -0.625
 -0.611  -0.610  -0.603  -0.602  -0.601  -0.600  -0.593  -0.592
 -0.586  -0.562  -0.543  -0.529  -0.517  -0.505  -0.497  -0.490
 -0.479  -0.479  -0.470  -0.466  -0.458  -0.448  -0.435  -0.433
 -0.422  -0.415  -0.412  -0.408  -0.402  -0.397  -0.390  -0.389
 -0.384  -0.383  -0.374  -0.372  -0.366  -0.364  -0.364  -0.363
 -0.362  -0.362  -0.360  -0.360  -0.359  -0.356  -0.346  -0.343
 -0.341  -0.341  -0.338  -0.337  -0.335  -0.334  -0.331  -0.330
 -0.325  -0.323  -0.318  -0.316  -0.314  -0.311  -0.309  -0.306
 -0.303  -0.299  -0.297  -0.296  -0.294  -0.291  -0.290  -0.287
 -0.286  -0.286  -0.284  -0.284  -0.277  -0.271  -0.268  -0.267
 -0.258  -0.257  -0.250  -0.246  -0.244  -0.239  -0.226  -0.206
 -0.191  -0.175  -0.155  -0.132
 -- Virtual --
 -0.091  -0.059  -0.033  -0.007   0.011   0.029   0.048   0.058
  0.060   0.062   0.065   0.068   0.072   0.073   0.079   0.081
  0.083   0.084   0.085   0.088   0.090   0.093   0.099   0.100
  0.102   0.103   0.112   0.113   0.116   0.117   0.119   0.124
  0.129   0.130   0.132   0.132   0.134   0.138   0.140   0.143
  0.145   0.148   0.149   0.152   0.154   0.157   0.159   0.160
  0.161   0.163   0.166   0.167   0.168   0.171   0.173   0.178
  0.179   0.182   0.183   0.186   0.187   0.189   0.195   0.195
  0.198   0.201   0.202   0.203   0.203   0.209   0.211   0.212
  0.215   0.217   0.220   0.222   0.224   0.230   0.232   0.238
  0.246   0.247   0.249   0.251   0.252   0.253   0.258   0.266
  0.283   0.307   0.324   0.332   0.340   0.346   0.363   0.372
  0.373   0.375   0.385   0.390   0.405   0.409   0.411   0.418
  0.426   0.430   0.445   0.454   0.475   0.481   0.485   0.488
  0.489   0.492   0.494   0.494   0.500   0.501   0.503   0.505
  0.509   0.517   0.519   0.524   0.526   0.527   0.529   0.532
  0.534   0.536   0.537   0.545   0.546   0.549   0.552   0.555
  0.559   0.562   0.565   0.569   0.572   0.579   0.581   0.584
  0.589   0.596   0.599   0.602   0.604   0.608   0.609   0.610
  0.612   0.614   0.616   0.619   0.626   0.630   0.635   0.636
  0.638   0.641   0.643   0.652   0.657   0.660   0.665   0.671
  0.679   0.684   0.685   0.691   0.694   0.696   0.697   0.701
  0.703   0.707   0.711   0.713   0.717   0.723   0.725   0.727
  0.728   0.734   0.734   0.750   0.755   0.762   0.764   0.769
  0.772   0.777   0.779   0.785   0.793   0.794   0.794   0.796
  0.798   0.803   0.804   0.812   0.817   0.823   0.826   0.835
  0.840   0.844   0.852   0.856   0.862   0.863   0.867   0.872
  0.874   0.876   0.879   0.881   0.882   0.883   0.887   0.889
  0.893   0.897   0.899   0.901   0.911   0.912   0.914   0.916
  0.921   0.923   0.926   0.928   0.931   0.932   0.933   0.936
  0.936   0.942   0.945   0.951   0.951   0.952   0.958   0.960
  0.961   0.961   0.969   0.971   0.977   0.979   0.988   0.989
  0.995   1.000   1.020   1.024   1.025   1.030   1.045   1.053
  1.064   1.064   1.067   1.077   1.081   1.083   1.088   1.093
  1.116   1.128   1.132   1.137   1.149   1.159   1.168   1.172
  1.179   1.183   1.184   1.189   1.193   1.205   1.210   1.214
  1.243   1.245   1.254   1.258   1.277   1.282   1.288   1.290
  1.293   1.309   1.328   1.332   1.347   1.350   1.390   1.411
  1.440   1.449   1.449   1.470   1.487   1.509   1.522   1.532
  1.546   1.552   1.561   1.575   1.593   1.599   1.633   1.639
  1.732   1.747   1.798   1.814
 --------------------------------------------------------------
 
          Ground-State Mulliken Net Atomic Charges

     Atom                 Charge (a.u.)
  ----------------------------------------
      1 C                    -0.148800
      2 C                    -0.078455
      3 C                    -0.158652
      4 C                     0.150664
      5 C                    -0.121457
      6 C                    -0.161182
      7 H                     0.094287
      8 H                     0.085371
      9 H                     0.096509
     10 C                     0.094907
     11 H                     0.096046
     12 C                     0.090847
     13 C                    -0.274219
     14 C                    -0.216815
     15 H                     0.109909
     16 H                     0.121535
     17 C                    -0.207301
     18 H                     0.114440
     19 H                     0.100605
     20 C                     0.010871
     21 H                     0.097170
     22 H                     0.105394
     23 C                    -0.439902
     24 H                     0.142536
     25 H                     0.129520
     26 H                     0.116086
     27 C                    -0.368718
     28 H                     0.121893
     29 H                     0.113133
     30 H                     0.117002
     31 C                    -0.360406
     32 H                     0.119072
     33 H                     0.112384
     34 H                     0.109089
     35 C                     0.155943
     36 C                    -0.162139
     37 C                    -0.084767
     38 C                    -0.084284
     39 H                     0.093757
     40 H                     0.087094
     41 H                     0.087230
     42 C                    -0.162486
     43 C                     0.156349
     44 C                    -0.148978
     45 C                    -0.078463
     46 H                     0.094340
     47 H                     0.087260
     48 C                    -0.158604
     49 C                     0.150332
     50 H                     0.085418
     51 C                    -0.119026
     52 H                     0.093753
     53 H                     0.087099
     54 C                    -0.161422
     55 H                     0.095600
     56 C                     0.098225
     57 H                     0.092765
     58 C                     0.091079
     59 C                    -0.279016
     60 C                    -0.216613
     61 H                     0.115091
     62 H                     0.118966
     63 C                     0.013126
     64 C                    -0.440752
     65 H                     0.118845
     66 H                     0.128135
     67 H                     0.141063
     68 C                    -0.369924
     69 H                     0.119137
     70 H                     0.115913
     71 H                     0.114357
     72 C                    -0.364491
     73 H                     0.119708
     74 H                     0.109005
     75 H                     0.120197
     76 C                    -0.210320
     77 H                     0.114915
     78 H                     0.100018
     79 H                     0.098210
     80 H                     0.104781
     81 C                    -0.450752
     82 H                     0.139545
     83 H                     0.127645
     84 H                     0.137361
     85 C                    -0.451901
     86 H                     0.138583
     87 H                     0.140212
     88 H                     0.129581
     89 C                    -0.451795
     90 H                     0.129527
     91 H                     0.140046
     92 H                     0.138790
     93 C                    -0.451839
     94 H                     0.127962
     95 H                     0.138953
     96 H                     0.138293
  ----------------------------------------
  Sum of atomic charges =    -0.000000

 -----------------------------------------------------------------
                    Cartesian Multipole Moments
 -----------------------------------------------------------------
    Charge (ESU x 10^10)
                -0.0000
    Dipole Moment (Debye)
         X       0.0753      Y       0.0172      Z      -0.0110
       Tot       0.0780
    Quadrupole Moments (Debye-Ang)
        XX    -216.1677     XY      -1.3780     YY    -234.9139
        XZ      -1.0920     YZ      -5.6379     ZZ    -255.5271
    Octopole Moments (Debye-Ang^2)
       XXX      15.2035    XXY       0.5749    XYY       0.9928
       YYY       5.3337    XXZ      -6.8687    XYZ       3.0800
       YYZ      -3.6729    XZZ      -0.8623    YZZ      -0.5428
       ZZZ     -15.2545
    Hexadecapole Moments (Debye-Ang^3)
      XXXX -138813.4983   XXXY    -813.6882   XXYY  -24177.2250
      XYYY     -27.7069   YYYY   -3656.5551   XXXZ     370.0130
      XXYZ     -75.6433   XYYZ     -17.6430   YYYZ      84.6514
      XXZZ  -25001.7653   XYZZ     -25.0026   YYZZ    -824.5284
      XZZZ     137.5869   YZZZ      86.7557   ZZZZ   -1290.1077
 -----------------------------------------------------------------
Archival summary:
1\1\cub-0-27.local\OPT\ProcedureUnspecified\6-31G\4056\c295_lal\WedOct3101:40:032018WedOct3101:40:032018\0\\#,OPT,ProcedureUnspecified,6-31G,\\0,1\C\C,1,1.37914\C,1,1.47687,2,123.534\H,3,1.09424,1,115.602,2,147.235,0\C,3,1.3766,1,127.226,2,-37.3272,0\H,5,1.09551,3,118.731,1,-0.484055,0\C,5,1.45689,3,126.139,1,-178.489,0\C,7,1.39235,5,118.411,3,178.657,0\H,8,1.09864,7,116.321,5,-0.160459,0\C,8,1.43514,7,128.362,5,179.763,0\H,10,1.09382,8,118.332,7,-0.00310755,0\C,10,1.38724,8,123.082,7,-179.905,0\H,12,1.09836,10,117.321,8,0.358363,0\C,12,1.44411,10,126.83,8,-179.677,0\C,14,1.39855,12,118.566,10,-179.203,0\H,15,1.09872,14,116.17,12,0.170009,0\C,15,1.42852,14,128.33,12,-179.933,0\H,17,1.0961,15,118.832,14,0.413567,0\C,17,1.39225,15,123.743,14,-179.594,0\H,19,1.09611,17,117.379,15,0.24336,0\C,19,1.42858,17,123.822,15,-179.533,0\H,21,1.09869,19,115.526,17,0.557192,0\C,21,1.39845,19,128.259,17,-179.763,0\C,23,1.44423,21,118.636,19,-179.018,0\H,24,1.0984,23,115.899,21,0.0252114,0\C,24,1.38714,23,126.764,21,179.723,0\H,26,1.09384,24,118.529,23,0.386472,0\C,26,1.43526,24,123.124,23,-179.459,0\H,28,1.0987,26,115.281,24,0.629463,0\C,28,1.39183,26,128.395,24,-179.62,0\C,30,1.45799,28,118.423,26,-179.387,0\H,31,1.09537,30,115.147,28,-0.191063,0\C,31,1.37581,30,126.092,28,-178.21,0\H,33,1.0961,31,117.068,30,3.58312,0\C,33,1.47728,31,128,30,179.387,0\C,35,1.37859,33,123.852,31,40.5367,0\C,30,1.52422,28,122.83,26,0.572781,0\H,37,1.09859,30,112.508,28,-0.32854,0\H,37,1.10527,30,111.044,28,-121.245,0\H,37,1.10602,30,110.986,28,120.115,0\C,7,1.52439,5,118.791,3,-1.32504,0\H,41,1.09854,7,112.498,5,178.328,0\H,41,1.10545,7,111.086,5,-60.756,0\H,41,1.10574,7,110.955,5,57.8638,0\C,2,1.52457,1,124.463,3,-9.36651,0\H,45,1.09912,2,112.781,1,-17.4826,0\H,45,1.10697,2,109.461,1,-138.232,0\H,45,1.10797,2,112.04,1,104.283,0\C,14,1.52527,12,118.856,10,0.598329,0\H,49,1.09853,14,112.504,12,176.069,0\H,49,1.10497,14,110.996,12,55.5261,0\H,49,1.10591,14,111.101,12,-63.3249,0\C,23,1.52544,21,122.569,19,0.634402,0\H,53,1.09846,23,112.518,21,3.66897,0\H,53,1.10507,23,110.958,21,124.118,0\H,53,1.10576,23,111.089,21,-117.06,0\C,36,1.526,35,124.059,33,1.45094,0\H,57,1.09971,36,112.484,35,20.4565,0\H,57,1.10528,36,109.974,35,141.518,0\H,57,1.10852,36,111.951,35,-100.522,0\C,2,1.5307,1,122.859,3,172.425,0\H,61,1.10896,2,108.464,1,-136.868,0\H,61,1.11204,2,109.175,1,109.048,0\C,36,1.53279,35,122.784,33,-179.359,0\H,64,1.10708,36,108.91,35,-141.49,0\H,64,1.11229,36,108.623,35,104.488,0\C,61,1.54293,2,113.471,1,-13.6373,0\H,67,1.10487,61,110.533,2,169.466,0\H,67,1.10579,61,109.765,2,-72.8946,0\C,67,1.54251,61,108.752,2,47.4478,0\H,70,1.10556,67,111.37,61,174.59,0\H,70,1.10793,67,108.584,61,57.3721,0\C,64,1.54615,36,114.175,35,-17.9506,0\H,73,1.10506,64,110.28,36,167.159,0\H,73,1.10579,64,109.525,36,-75.7255,0\C,73,1.54261,64,109.604,36,45.0793,0\H,76,1.10604,73,111.023,64,176.986,0\H,76,1.108,73,108.747,64,59.9617,0\C,76,1.56531,73,112.759,64,-60.6835,0\C,79,1.56515,76,107.206,73,166.87,0\H,80,1.10238,79,112.357,76,175.042,0\H,80,1.1034,79,110.724,76,-64.4664,0\H,80,1.10517,79,109.873,76,54.9852,0\C,70,1.56694,67,112.414,61,-63.2067,0\C,84,1.56651,70,109.733,67,-78.8813,0\H,85,1.10297,84,110.99,70,178.295,0\H,85,1.10337,84,111.417,70,58.6467,0\H,85,1.10527,84,110.446,70,-61.6568,0\C,84,1.56768,70,106.798,67,163.635,0\H,89,1.1025,84,112.872,70,169.882,0\H,89,1.10354,84,110.913,70,-68.3219,0\H,89,1.10454,84,109.267,70,50.6936,0\C,79,1.56808,76,109.589,73,-75.3485,0\H,93,1.10215,79,111.418,76,60.6511,0\H,93,1.10346,79,111.703,76,-179.009,0\H,93,1.1049,79,110.032,76,-59.649,0\\\@

 Total job time:  4706.55s(wall), 18692.96s(cpu) 
 Wed Oct 31 01:40:03 2018

        *************************************************************
        *                                                           *
        *  Thank you very much for using Q-Chem.  Have a nice day.  *
        *                                                           *
        *************************************************************


