
Running Job 1 of 1 car_1_diox_opt_631g_gga.in
qchem car_1_diox_opt_631g_gga.in_9496.0 /scr/c295_lal/137157/qchem9496/ 1
/usr/software/qchem_511/exe/qcprog.exe_s car_1_diox_opt_631g_gga.in_9496.0 /scr/c295_lal/137157/qchem9496/
Check license passed

                  Welcome to Q-Chem
     A Quantum Leap Into The Future Of Chemistry


 Q-Chem 5.1, Q-Chem, Inc., Pleasanton, CA (2018)

 Yihan Shao,  Zhengting Gan,  E. Epifanovsky,  A. T. B. Gilbert,  M. Wormit,  
 J. Kussmann,  A. W. Lange,  A. Behn,  Jia Deng,  Xintian Feng,  D. Ghosh,  
 M. Goldey,  P. R. Horn,  L. D. Jacobson,  I. Kaliman,  T. Kus,  A. Landau,  
 Jie Liu,  E. I. Proynov,  R. M. Richard,  R. P. Steele,  E. J. Sundstrom,  
 H. L. Woodcock III,  P. M. Zimmerman,  D. Zuev,  B. Albrecht,  E. Alguire,  
 S. A. Baeppler,  D. Barton,  Z. Benda,  Y. A. Bernard,  E. J. Berquist,  
 K. B. Bravaya,  H. Burton,  D. Casanova,  Chun-Min Chang,  Yunqing Chen,  
 A. Chien,  K. D. Closser,  M. P. Coons,  S. Coriani,  S. Dasgupta,  
 A. L. Dempwolff,  M. Diedenhofen,  Hainam Do,  R. G. Edgar,  Po-Tung Fang,  
 S. Faraji,  S. Fatehi,  Qingguo Feng,  K. D. Fenk,  J. Fosso-Tande,  
 Qinghui Ge,  A. Ghysels,  G. Gidofalvi,  J. Gomes,  J. Gonthier,  A. Gunina,  
 D. Hait,  M. W. D. Hanson-Heine,  P. H. P. Harbach,  A. W. Hauser,  
 J. E. Herr,  E. G. Hohenstein,  Z. C. Holden,  Kerwin Hui,  B. C. Huynh,  
 T.-C. Jagau,  Hyunjun Ji,  B. Kaduk,  K. Khistyaev,  Jaehoon Kim,  
 P. Klunzinger,  K. Koh,  D. Kosenkov,  L. Koulias,  T. Kowalczyk,  
 C. M. Krauter,  A. Kunitsa,  Ka Un Lao,  A. Laurent,  K. V. Lawler,  
 Joonho Lee,  D. Lefrancois,  S. Lehtola,  D. S. Levine,  Yi-Pei Li,  
 You-Sheng Lin,  Fenglai Liu,  E. Livshits,  A. Luenser,  P. Manohar,  
 E. Mansoor,  S. F. Manzer,  Shan-Ping Mao,  Yuezhi Mao,  N. Mardirossian,  
 A. V. Marenich,  T. Markovich,  L. A. Martinez-Martinez,  S. A. Maurer,  
 N. J. Mayhall,  S. C. McKenzie,  J.-M. Mewes,  A. F. Morrison,  
 J. W. Mullinax,  K. Nanda,  T. S. Nguyen-Beck,  R. Olivares-Amaya,  
 J. A. Parkhill,  T. M. Perrine,  F. Plasser,  P. Pokhilko,  S. Prager,  
 A. Prociuk,  E. Ramos,  D. R. Rehn,  F. Rob,  M. Schneider,  N. Sergueev,  
 S. M. Sharada,  S. Sharma,  D. W. Small,  T. Stauch,  T. Stein,  
 Yu-Chuan Su,  A. J. W. Thom,  A. Tkatchenko,  T. Tsuchimochi,  N. M. Tubman,  
 L. Vogt,  M. L. Vidal,  O. Vydrov,  M. A. Watson,  J. Wenzel,  
 M. de Wergifosse,  T. A. Wesolowski,  A. White,  J. Witte,  A. Yamada,  
 Jun Yang,  K. Yao,  S. Yeganeh,  S. R. Yost,  Zhi-Qiang You,  A. Zech,  
 Igor Ying Zhang,  Xing Zhang,  Yan Zhao,  Ying Zhu,  B. R. Brooks,  
 G. K. L. Chan,  C. J. Cramer,  M. S. Gordon,  W. J. Hehre,  A. Klamt,  
 M. W. Schmidt,  C. D. Sherrill,  D. G. Truhlar,  A. Aspuru-Guzik,  R. Baer,  
 A. T. Bell,  N. A. Besley,  Jeng-Da Chai,  A. E. DePrince, III,  
 R. A. DiStasio Jr.,  A. Dreuw,  B. D. Dunietz,  T. R. Furlani,  
 Chao-Ping Hsu,  Yousung Jung,  Jing Kong,  D. S. Lambrecht,  WanZhen Liang,  
 C. Ochsenfeld,  V. A. Rassolov,  L. V. Slipchenko,  J. E. Subotnik,  
 T. Van Voorhis,  J. M. Herbert,  A. I. Krylov,  P. M. W. Gill,  M. Head-Gordon

 Contributors to earlier versions of Q-Chem not listed above: 
 R. D. Adamson,  B. Austin,  J. Baker,  G. J. O. Beran,  K. Brandhorst,  
 S. T. Brown,  E. F. C. Byrd,  A. K. Chakraborty,  C.-L. Cheng,  
 Siu Hung Chien,  D. M. Chipman,  D. L. Crittenden,  H. Dachsel,  
 R. J. Doerksen,  A. D. Dutoi,  L. Fusti-Molnar,  W. A. Goddard III,  
 A. Golubeva-Zadorozhnaya,  S. R. Gwaltney,  G. Hawkins,  A. Heyden,  
 S. Hirata,  G. Kedziora,  F. J. Keil,  C. Kelley,  Jihan Kim,  R. A. King,  
 R. Z. Khaliullin,  P. P. Korambath,  W. Kurlancheek,  A. M. Lee,  M. S. Lee,  
 S. V. Levchenko,  Ching Yeh Lin,  D. Liotard,  R. C. Lochan,  I. Lotan,  
 P. E. Maslen,  N. Nair,  D. P. O'Neill,  D. Neuhauser,  E. Neuscamman,  
 C. M. Oana,  R. Olson,  B. Peters,  R. Peverati,  P. A. Pieniazek,  
 Y. M. Rhee,  J. Ritchie,  M. A. Rohrdanz,  E. Rosta,  N. J. Russ,  
 H. F. Schaefer III,  N. E. Schultz,  N. Shenvi,  A. C. Simmonett,  A. Sodt,  
 D. Stuck,  K. S. Thanthiriwatte,  V. Vanovschi,  Tao Wang,  A. Warshel,  
 C. F. Williams,  Q. Wu,  X. Xu,  W. Zhang

 Please cite Q-Chem as follows:
 Y. Shao et al., Mol. Phys. 113, 184-215 (2015)
 DOI: 10.1080/00268976.2014.952696

 Q-Chem 5.1.1 for Intel X86 EM64T Linux

 Parts of Q-Chem use Armadillo 8.300.2 (Tropical Shenanigans).
 http://arma.sourceforge.net/

 Q-Chem begins on Wed Oct 31 17:27:36 2018  

Host: cub-0-14.local
0

     Scratch files written to /scr/c295_lal/137157/qchem9496//
 Aug318 |scratch|qcdevops|jenkins|workspace|build_RNUM -1
Processing $rem in /usr/software/qchem_511/config/preferences.
 MEM_TOTAL  2000 
Input Ideriv = 2
Curr. Ideriv = -1
Max.  Ideriv = 2

Checking the input file for inconsistencies... 	...done.

--------------------------------------------------------------
User input:
--------------------------------------------------------------
$molecule
0 1
C          1.09786        0.95703       -0.22304
C          1.56725       -0.16898        0.66819
C          0.88998       -1.45332        0.21777
C         -0.60454       -1.32893       -0.04619
C         -1.25817       -0.10643       -0.13569
C         -0.42922        1.21265       -0.04493
C         -2.79055        0.02159       -0.40961
C         -3.67452        0.38989        0.74818
C         -4.79269        1.39207        0.42283
C         -6.08046        0.97975        0.28022
C         -0.67544        1.90598        1.31651
C         -0.81452        2.18812       -1.18196
C         -1.27872       -2.67317       -0.22721
C         -7.21543        1.88699       -0.02986
C         -8.45821        1.41428       -0.15561
C         -4.45583        2.85586        0.27248
O         -3.45892       -1.20461       -0.40925
O         -4.15671       -0.91964        0.69060
H          1.32902        0.66606       -1.27380
H          1.67124        1.88540       -0.00517
H          1.32232        0.05121        1.72567
H          2.66924       -0.30065        0.60745
H          1.08760       -2.20737        1.01105
H          1.35327       -1.81803       -0.72538
H         -3.03666        0.55483       -1.35240
H         -3.15547        0.55164        1.71437
H         -6.32699       -0.07113        0.39524
H         -0.43938        1.24103        2.17036
H         -1.71950        2.21643        1.44538
H         -0.05725        2.82521        1.40545
H         -0.64813        1.71671       -2.17482
H         -0.20472        3.11646       -1.12946
H         -1.87386        2.49659       -1.12796
H         -0.55460       -3.51250       -0.14879
H         -1.73546       -2.74060       -1.23699
H         -2.03326       -2.84051        0.56897
H         -7.06106        2.95270       -0.16150
H         -8.67429        0.35684       -0.03508
H         -9.27556        2.09125       -0.38257
H         -3.38822        3.06106        0.42677
H         -5.01549        3.45163        1.02415
H         -4.72002        3.20227       -0.74899
$end

$rem
BASIS = 6-31G(d,p)
METHOD  = B3LYP
JOBTYPE = OPT
$end
--------------------------------------------------------------
 ----------------------------------------------------------------
             Standard Nuclear Orientation (Angstroms)
    I     Atom           X                Y                Z
 ----------------------------------------------------------------
    1      C       3.4258763046    -1.3198101714     0.3501934609
    2      C       4.1370503450    -0.3451548318    -0.5590891455
    3      C       3.7641597300     1.0667919244    -0.1366426852
    4      C       2.2793756826     1.2855657127     0.1208299275
    5      C       1.3682536978     0.2425653427     0.2292533284
    6      C       1.8806280811    -1.2302143183     0.1679337733
    7      C      -0.1542560615     0.4664783205     0.4965298943
    8      C      -1.0965044217     0.2831266077    -0.6593575189
    9      C      -2.4113336442    -0.4365289620    -0.3219534574
   10      C      -3.5741554833     0.2565234356    -0.1945928976
   11      C       1.4873740718    -1.8771187291    -1.1817756838
   12      C       1.2847662030    -2.0722415668     1.3206582707
   13      C       1.9233344045     2.7499422400     0.2728302064
   14      C      -4.8840562979    -0.3671573341     0.1256774229
   15      C      -5.9894723730     0.3743301914     0.2353199571
   16      C      -2.4113329172    -1.9353685435    -0.1423960708
   17      O      -0.5308115176     1.8110064608     0.4694172627
   18      O      -1.2730293657     1.6682652298    -0.6290027000
   19      H       3.7147546877    -1.0676319766     1.3966878478
   20      H       3.7769416199    -2.3571029561     0.1530142494
   21      H       3.8506255201    -0.5254117947    -1.6137011777
   22      H       5.2404232277    -0.4625707964    -0.4943583994
   23      H       4.1269646658     1.7418104413    -0.9426580732
   24      H       4.2959544603     1.3367191479     0.8022484638
   25      H      -0.5150597526     0.0203876065     1.4476301967
   26      H      -0.6254267078    -0.0095764066    -1.6193105459
   27      H      -3.5787181864     1.3334796188    -0.3306075176
   28      H       1.8677653141    -1.2987090787    -2.0464648925
   29      H       0.4004945403    -1.9482082092    -1.3109543689
   30      H       1.8839600640    -2.9130356268    -1.2499572382
   31      H       1.5510506531    -1.6308610074     2.3055236388
   32      H       1.6710780125    -3.1144461066     1.2890303006
   33      H       0.1833242444    -2.1365211006     1.2662089376
   34      H       2.8172615489     3.4040104598     0.1830340813
   35      H       1.4917760597     2.9376294986     1.2784865935
   36      H       1.2267143109     3.0665499591    -0.5307342758
   37      H      -4.9726583015    -1.4375921585     0.2780452752
   38      H      -5.9628810301     1.4507489192     0.0938525623
   39      H      -6.9380982520    -0.0977580991     0.4700577529
   40      H      -1.4166335716    -2.3775080235    -0.2865815354
   41      H      -3.0891242422    -2.4051188742    -0.8861047126
   42      H      -2.7480057478    -2.1938328695     0.8837836418
 ----------------------------------------------------------------
 Molecular Point Group                 C1    NOp =  1
 Largest Abelian Subgroup              C1    NOp =  1
 Nuclear Repulsion Energy =  1393.6016913242 hartrees
 There are       68 alpha and       68 beta electrons
 Requested basis set is 6-31G(d,p)
 There are 144 shells and 390 basis functions

 Total QAlloc Memory Limit   2000 MB
 Mega-Array Size       188 MB
 MEM_STATIC part       192 MB
 A cutoff of  1.0D-11 yielded   6634 shell pairs
 There are     50358 function pairs
 
 -------------------------------------------------------
 OpenMP Integral Computing Module                       
 Release: version 1.0, May 2013, Q-Chem Inc. Pittsburgh 
 -------------------------------------------------------
 Integral Job Info:
 Integral job number is                      11
 Integral operator is                         1
 short-range coefficients                     0
 long-range coefficients              100000000
 Omega coefficients                           0
 if combine SR and LR in K                    0
 Integral screening is                        0
 Integral computing path is                   2
 max size of driver memory is            800000
 size of driver memory is                593474
 size of scratch memory is              2361544
 max col of scratch BK array               1296
 max len of scratch array in speh3          155
 max len of scratch index in speh4           18
 max int batch size is                      520
 min int batch size is                       52
 fixed nKL is                                52
 max L of basis functions is                  2
 order of int derivative is                   0
 number of shells is                        144
 number of basis is                         390
 number of cartesian basis is               390
 number of contracted shell pairs          6634
 number of primitive shell pairs          18752
 maxK2 (contraction) of shell pair           36
 max number of K2 of shell pair               1
 max number of CS2 of shell pair            682
 max number of PS2 of shell pair           2712
 mem total for path MDJ                  587100
 -------------------------------------------------------
 Smallest overlap matrix eigenvalue = 1.12E-03

 Scale SEOQF with 1.000000e-02/1.000000e-01/1.000000e-01

 Standard Electronic Orientation quadrupole field applied
 Nucleus-field energy     =     0.0000000187 hartrees
 Guess from superposition of atomic densities
 Warning:  Energy on first SCF cycle will be non-variational
 SAD guess density has 136.000000 electrons

 -----------------------------------------------------------------------
  General SCF calculation program by
  Eric Jon Sundstrom, Paul Horn, Yuezhi Mao, Dmitri Zuev, Alec White,
  David Stuck, Shaama M.S., Shane Yost, Joonho Lee, David Small,
  Daniel Levine, Susi Lehtola, Hugh Burton, Evgeny Epifanovsky
 -----------------------------------------------------------------------
 Exchange:     0.2000 Hartree-Fock + 0.0800 Slater + 0.7200 B88
 Correlation:  0.1900 VWN1RPA + 0.8100 LYP
 Using SG-1 standard quadrature grid
 using 12 threads for integral computing
 -------------------------------------------------------
 OpenMP Integral computing Module                
 Release: version 1.0, May 2013, Q-Chem Inc. Pittsburgh 
 -------------------------------------------------------
 -------------------------------------------------------
 OpenMP BLAS3 based DFT computing Module                
 Release: version 1.0, May 2013, Q-Chem Inc. Pittsburgh 
 -------------------------------------------------------
 A restricted SCF calculation will be
 performed using DIIS
 SCF converges when DIIS error is below 1.0e-08
 ---------------------------------------
  Cycle       Energy         DIIS error
 ---------------------------------------
    1    -777.8990237853      3.54e-02  
    2    -774.1174318005      3.88e-03  
    3    -774.0548297212      4.25e-03  
    4    -774.4135960586      8.05e-04  
    5    -774.4236589936      3.91e-04  
    6    -774.4264950310      1.03e-04  
    7    -774.4266792387      3.24e-05  
    8    -774.4266959418      1.15e-05  
    9    -774.4266984503      2.44e-06  
   10    -774.4266985502      8.66e-07  
   11    -774.4266985631      2.81e-07  
   12    -774.4266985643      1.10e-07  
   13    -774.4266985646      1.62e-08  
   14    -774.4266985646      6.99e-09  Convergence criterion met
 ---------------------------------------
 SCF time:   CPU 541.37s  wall 45.00s 
 SCF   energy in the final basis set =     -774.4266985646
 Total energy in the final basis set =     -774.4266985646
 
 --------------------------------------------------------------
 
                    Orbital Energies (a.u.)
 --------------------------------------------------------------
 
 Alpha MOs
 -- Occupied --
-19.189 -19.187 -10.250 -10.250 -10.207 -10.198 -10.197 -10.193
-10.191 -10.190 -10.186 -10.184 -10.181 -10.181 -10.181 -10.180
-10.179 -10.170  -1.211  -0.891  -0.845  -0.817  -0.784  -0.779
 -0.754  -0.735  -0.686  -0.680  -0.671  -0.667  -0.605  -0.586
 -0.563  -0.557  -0.536  -0.529  -0.519  -0.506  -0.477  -0.458
 -0.448  -0.444  -0.432  -0.430  -0.422  -0.420  -0.415  -0.400
 -0.396  -0.391  -0.389  -0.383  -0.371  -0.367  -0.363  -0.357
 -0.351  -0.343  -0.341  -0.334  -0.321  -0.321  -0.306  -0.303
 -0.294  -0.224  -0.217  -0.205
 -- Virtual --
 -0.025   0.011   0.065   0.077   0.083   0.088   0.097   0.107
  0.113   0.120   0.125   0.127   0.131   0.138   0.144   0.156
  0.159   0.164   0.169   0.179   0.181   0.185   0.188   0.196
  0.200   0.202   0.208   0.212   0.222   0.228   0.234   0.237
  0.245   0.252   0.266   0.273   0.283   0.283   0.296   0.311
  0.339   0.354   0.375   0.394   0.402   0.457   0.485   0.494
  0.503   0.518   0.521   0.532   0.537   0.544   0.549   0.566
  0.568   0.574   0.581   0.593   0.606   0.611   0.613   0.615
  0.623   0.641   0.643   0.652   0.660   0.670   0.675   0.683
  0.686   0.698   0.707   0.728   0.730   0.751   0.758   0.762
  0.770   0.782   0.787   0.793   0.803   0.815   0.826   0.828
  0.836   0.844   0.847   0.848   0.858   0.862   0.865   0.874
  0.881   0.884   0.889   0.904   0.905   0.922   0.923   0.926
  0.932   0.936   0.942   0.952   0.958   0.971   0.981   0.991
  0.994   1.014   1.044   1.061   1.067   1.075   1.085   1.110
  1.121   1.142   1.151   1.181   1.186   1.195   1.219   1.244
  1.266   1.278   1.304   1.307   1.318   1.332   1.366   1.370
  1.376   1.398   1.413   1.422   1.438   1.452   1.476   1.498
  1.499   1.535   1.546   1.576   1.587   1.604   1.622   1.643
  1.657   1.680   1.711   1.721   1.734   1.754   1.761   1.768
  1.786   1.794   1.804   1.820   1.840   1.851   1.860   1.868
  1.872   1.877   1.884   1.890   1.905   1.911   1.916   1.943
  1.955   1.961   1.963   1.983   1.985   2.000   2.015   2.021
  2.032   2.039   2.039   2.049   2.054   2.058   2.060   2.066
  2.077   2.081   2.088   2.103   2.107   2.113   2.121   2.125
  2.143   2.150   2.156   2.165   2.183   2.190   2.194   2.208
  2.214   2.223   2.254   2.265   2.267   2.286   2.303   2.317
  2.339   2.351   2.361   2.379   2.384   2.406   2.418   2.423
  2.433   2.441   2.456   2.467   2.490   2.494   2.495   2.512
  2.524   2.532   2.539   2.552   2.577   2.591   2.604   2.610
  2.618   2.623   2.632   2.660   2.667   2.671   2.681   2.687
  2.704   2.708   2.709   2.718   2.732   2.750   2.758   2.766
  2.775   2.788   2.796   2.816   2.830   2.834   2.842   2.853
  2.862   2.866   2.873   2.896   2.913   2.926   2.942   2.951
  2.957   2.966   3.017   3.044   3.051   3.061   3.108   3.161
  3.180   3.209   3.210   3.225   3.251   3.290   3.291   3.323
  3.345   3.380   3.398   3.403   3.405   3.418   3.421   3.433
  3.449   3.457   3.470   3.489   3.507   3.548   3.575   3.685
  3.902   4.134   4.150   4.225   4.306   4.319   4.392   4.500
  4.513   4.521   4.547   4.595   4.621   4.668   4.719   4.733
  4.775   4.917
 --------------------------------------------------------------
 
          Ground-State Mulliken Net Atomic Charges

     Atom                 Charge (a.u.)
  ----------------------------------------
      1 C                    -0.161039
      2 C                    -0.189639
      3 C                    -0.219529
      4 C                     0.046111
      5 C                     0.053095
      6 C                    -0.004607
      7 C                     0.131229
      8 C                     0.133663
      9 C                     0.041953
     10 C                    -0.099579
     11 C                    -0.304966
     12 C                    -0.311041
     13 C                    -0.336640
     14 C                    -0.029426
     15 C                    -0.247737
     16 C                    -0.379077
     17 O                    -0.293401
     18 O                    -0.290736
     19 H                     0.087562
     20 H                     0.081575
     21 H                     0.095660
     22 H                     0.084274
     23 H                     0.101956
     24 H                     0.108255
     25 H                     0.107763
     26 H                     0.112746
     27 H                     0.105465
     28 H                     0.104851
     29 H                     0.095416
     30 H                     0.095169
     31 H                     0.103283
     32 H                     0.097260
     33 H                     0.092659
     34 H                     0.082791
     35 H                     0.121653
     36 H                     0.136769
     37 H                     0.082252
     38 H                     0.101741
     39 H                     0.095424
     40 H                     0.110666
     41 H                     0.127843
     42 H                     0.128335
  ----------------------------------------
  Sum of atomic charges =    -0.000000

 -----------------------------------------------------------------
                    Cartesian Multipole Moments
 -----------------------------------------------------------------
    Charge (ESU x 10^10)
                -0.0000
    Dipole Moment (Debye)
         X       0.9767      Y      -2.4225      Z       0.0041
       Tot       2.6120
    Quadrupole Moments (Debye-Ang)
        XX    -105.3972     XY       3.9466     YY    -111.8498
        XZ      -0.8091     YZ      -0.1188     ZZ    -111.3172
    Octopole Moments (Debye-Ang^2)
       XXX     -18.3991    XXY       2.1721    XYY      -4.4474
       YYY       6.0451    XXZ       6.7972    XYZ       1.5167
       YYZ      -1.0325    XZZ       7.0326    YZZ       4.8709
       ZZZ      -0.8883
    Hexadecapole Moments (Debye-Ang^3)
      XXXX   -5635.9503   XXXY      13.8221   XXYY   -1186.2742
      XYYY      -9.1676   YYYY   -1551.2515   XXXZ     -43.2612
      XXYZ     -11.2772   XYYZ      -1.4531   YYYZ      -0.7187
      XXZZ   -1095.7104   XYZZ       5.7937   YYZZ    -332.4224
      XZZZ       4.6973   YZZZ       0.3186   ZZZZ    -414.1762
 -----------------------------------------------------------------
 Calculating analytic gradient of the SCF energy
 Gradient of SCF Energy
            1           2           3           4           5           6
    1  -0.0021041  -0.0117311  -0.0007314   0.0219831  -0.0244692   0.0013750
    2   0.0039692   0.0008694  -0.0021567   0.0213679  -0.0167472   0.0031667
    3  -0.0021212   0.0034763   0.0061398   0.0012511  -0.0071137  -0.0060256
            7           8           9          10          11          12
    1  -0.0465224   0.0307991   0.0085427  -0.0007974  -0.0030243   0.0061472
    2   0.0264140   0.0351718  -0.0075149   0.0177586   0.0056532   0.0032031
    3  -0.0234232   0.0195980   0.0076406  -0.0022482   0.0079210  -0.0068572
           13          14          15          16          17          18
    1  -0.0016852  -0.0165045   0.0055792  -0.0014198  -0.0469381   0.0627805
    2  -0.0123388  -0.0141705   0.0015380   0.0066407  -0.0448203  -0.0258967
    3  -0.0003230   0.0042695  -0.0012299   0.0005796  -0.0931086   0.0948660
           19          20          21          22          23          24
    1   0.0058857   0.0068456  -0.0030189   0.0089481   0.0057467   0.0006308
    2   0.0047911  -0.0074723  -0.0024167   0.0006430  -0.0021463  -0.0004709
    3   0.0076973  -0.0033035  -0.0066773   0.0019583  -0.0110351   0.0081999
           25          26          27          28          29          30
    1  -0.0088970   0.0069038  -0.0010957   0.0017092  -0.0028485   0.0023875
    2   0.0031583   0.0054865   0.0000036   0.0051174   0.0000412  -0.0084354
    3   0.0077813  -0.0070517  -0.0000783  -0.0070293  -0.0013679   0.0000112
           31          32          33          34          35          36
    1   0.0026265   0.0023383  -0.0070756   0.0046636   0.0006085  -0.0037450
    2   0.0048920  -0.0100640   0.0004981   0.0093564  -0.0025376   0.0002202
    3   0.0087771  -0.0002034  -0.0015035  -0.0011616   0.0137069  -0.0130357
           37          38          39          40          41          42
    1  -0.0044084   0.0021538   0.0019489   0.0037952  -0.0054146  -0.0019678
    2   0.0013072  -0.0001719  -0.0034715  -0.0013270  -0.0007668   0.0016582
    3   0.0006500  -0.0004200   0.0002017  -0.0007106  -0.0090990   0.0104016
 Max gradient component =       9.487E-02
 RMS gradient           =       1.740E-02
 Gradient time:  CPU 161.47 s  wall 14.02 s
 Geometry Optimization Parameters
   NAtoms,    NIC,     NZ,  NCons,   NDum,   NFix, NCnnct, MaxDiis
       42     320       0       0       0       0       0       0


** GEOMETRY OPTIMIZATION IN DELOCALIZED INTERNAL COORDINATES **
   Searching for a Minimum

   Optimization Cycle:   1

                       Coordinates (Angstroms)
     ATOM                X               Y               Z
      1  C         3.4258763046   -1.3198101714    0.3501934609
      2  C         4.1370503450   -0.3451548318   -0.5590891455
      3  C         3.7641597300    1.0667919244   -0.1366426852
      4  C         2.2793756826    1.2855657127    0.1208299275
      5  C         1.3682536978    0.2425653427    0.2292533284
      6  C         1.8806280811   -1.2302143183    0.1679337733
      7  C        -0.1542560615    0.4664783205    0.4965298943
      8  C        -1.0965044217    0.2831266077   -0.6593575189
      9  C        -2.4113336442   -0.4365289620   -0.3219534574
     10  C        -3.5741554833    0.2565234356   -0.1945928976
     11  C         1.4873740718   -1.8771187291   -1.1817756838
     12  C         1.2847662030   -2.0722415668    1.3206582707
     13  C         1.9233344045    2.7499422400    0.2728302064
     14  C        -4.8840562979   -0.3671573341    0.1256774229
     15  C        -5.9894723730    0.3743301914    0.2353199571
     16  C        -2.4113329172   -1.9353685435   -0.1423960708
     17  O        -0.5308115176    1.8110064608    0.4694172627
     18  O        -1.2730293657    1.6682652298   -0.6290027000
     19  H         3.7147546877   -1.0676319766    1.3966878478
     20  H         3.7769416199   -2.3571029561    0.1530142494
     21  H         3.8506255201   -0.5254117947   -1.6137011777
     22  H         5.2404232277   -0.4625707964   -0.4943583994
     23  H         4.1269646658    1.7418104413   -0.9426580732
     24  H         4.2959544603    1.3367191479    0.8022484638
     25  H        -0.5150597526    0.0203876065    1.4476301967
     26  H        -0.6254267078   -0.0095764066   -1.6193105459
     27  H        -3.5787181864    1.3334796188   -0.3306075176
     28  H         1.8677653141   -1.2987090787   -2.0464648925
     29  H         0.4004945403   -1.9482082092   -1.3109543689
     30  H         1.8839600640   -2.9130356268   -1.2499572382
     31  H         1.5510506531   -1.6308610074    2.3055236388
     32  H         1.6710780125   -3.1144461066    1.2890303006
     33  H         0.1833242444   -2.1365211006    1.2662089376
     34  H         2.8172615489    3.4040104598    0.1830340813
     35  H         1.4917760597    2.9376294986    1.2784865935
     36  H         1.2267143109    3.0665499591   -0.5307342758
     37  H        -4.9726583015   -1.4375921585    0.2780452752
     38  H        -5.9628810301    1.4507489192    0.0938525623
     39  H        -6.9380982520   -0.0977580991    0.4700577529
     40  H        -1.4166335716   -2.3775080235   -0.2865815354
     41  H        -3.0891242422   -2.4051188742   -0.8861047126
     42  H        -2.7480057478   -2.1938328695    0.8837836418
   Point Group: c1    Number of degrees of freedom:   120


   Energy is   -774.426698565


 Attempting to Generate Delocalized Internal Coordinates

120 Hessian modes will be used to form the next step
  Hessian Eigenvalues:
     0.002000    0.002891    0.002978    0.004088    0.004364    0.007236
     0.007248    0.007915    0.008945    0.010409    0.011067    0.011596
     0.012289    0.013444    0.019694    0.020689    0.027742    0.030929
     0.030929    0.031142    0.031823    0.035655    0.037189    0.044596
     0.047496    0.049747    0.052163    0.052755    0.053688    0.054067
     0.054119    0.055017    0.059790    0.060438    0.068209    0.071811
     0.071903    0.072816    0.073913    0.075748    0.077898    0.078355
     0.081618    0.089540    0.096618    0.097875    0.099572    0.121057
     0.123652    0.127883    0.133249    0.158353    0.160000    0.160000
     0.160000    0.160000    0.160000    0.160000    0.160000    0.160000
     0.160000    0.160000    0.160000    0.160000    0.160000    0.160000
     0.160000    0.160000    0.186663    0.203572    0.220000    0.220000
     0.230462    0.249361    0.249935    0.249988    0.249992    0.261136
     0.265589    0.266617    0.278622    0.279181    0.288403    0.290959
     0.295047    0.298577    0.302114    0.308844    0.313951    0.321242
     0.323157    0.323591    0.323706    0.323947    0.324298    0.324429
     0.324597    0.324634    0.325206    0.325478    0.325491    0.325660
     0.326413    0.327436    0.328475    0.328574    0.331721    0.338992
     0.339219    0.340345    0.352789    0.353354    0.353623    0.354148
     0.393779    0.458556    0.461005    0.528881    0.530147    0.582073

 Minimum Search - Taking Simple RFO Step
 Searching for Lamda that Minimizes Along All modes
 Value Taken    Lamda =  -0.04727939
 Calculated Step too Large.  Step scaled by  0.798836
 Step Taken.  Stepsize is  0.300000

                             Maximum     Tolerance    Cnvgd?
         Gradient           0.083082      0.000300      NO
         Displacement       0.115874      0.001200      NO
         Energy change     *********      0.000001      NO


 New Cartesian Coordinates Obtained by Inverse Iteration

 Displacement from previous Coordinates is:  0.815032
 ----------------------------------------------------------------
             Standard Nuclear Orientation (Angstroms)
    I     Atom           X                Y                Z
 ----------------------------------------------------------------
    1      C       3.3842976679    -1.3290060250     0.3564978183
    2      C       4.1204033184    -0.3656536760    -0.5586467461
    3      C       3.7606941168     1.0576072284    -0.1471233750
    4      C       2.2840342066     1.2937052043     0.1164269233
    5      C       1.3852551803     0.2712355293     0.2298290073
    6      C       1.8509496800    -1.2122467061     0.1781961453
    7      C      -0.1195426581     0.4886557596     0.5027824646
    8      C      -1.1250459728     0.2937000237    -0.6612522086
    9      C      -2.4070299394    -0.4636163009    -0.3355925996
   10      C      -3.5643278546     0.2158738874    -0.1859211769
   11      C       1.4526354158    -1.8701900934    -1.1649169963
   12      C       1.2212518097    -2.0261416125     1.3341590990
   13      C       1.9737163854     2.7751234692     0.2645450106
   14      C      -4.8653842686    -0.3853114684     0.1279076673
   15      C      -5.9781230599     0.3521073698     0.2640963482
   16      C      -2.3411819844    -1.9726870589    -0.1999928854
   17      O      -0.5316847701     1.8544228502     0.5150661685
   18      O      -1.3270072009     1.7059906536    -0.6339171807
   19      H       3.6584898457    -1.0889831664     1.3978220740
   20      H       3.6939901831    -2.3703403168     0.1740316943
   21      H       3.8337701745    -0.5409046741    -1.6051583580
   22      H       5.2114138705    -0.5038932829    -0.4992951020
   23      H       4.1079632971     1.7501781280    -0.9313789890
   24      H       4.2998575025     1.3275102460     0.7779053973
   25      H      -0.4340806263     0.0118189468     1.4444131096
   26      H      -0.6810258949    -0.0012012135    -1.6235696458
   27      H      -3.5590456282     1.2954686107    -0.2989458419
   28      H       1.8515522197    -1.3189441894    -2.0264542995
   29      H       0.3682239991    -1.9196999544    -1.2973482954
   30      H       1.8258143604    -2.9051973184    -1.2161459375
   31      H       1.4884890013    -1.5914900738     2.3084738997
   32      H       1.5841814132    -3.0646078520     1.3120780846
   33      H       0.1267887606    -2.0694990059     1.2783610403
   34      H       2.8976060297     3.3656860233     0.1690028670
   35      H       1.5479933261     3.0062593967     1.2488036263
   36      H       1.2910192316     3.1291106135    -0.5166399102
   37      H      -4.9400064884    -1.4609177302     0.2555838406
   38      H      -5.9584012958     1.4316621515     0.1469144990
   39      H      -6.9303722707    -0.1146428167     0.4955312291
   40      H      -1.3330773940    -2.3621974400    -0.3671738195
   41      H      -2.9968271340    -2.4613509110    -0.9349375452
   42      H      -2.6498769790    -2.2909416301     0.8059870478
 ----------------------------------------------------------------
 Molecular Point Group                 C1    NOp =  1
 Largest Abelian Subgroup              C1    NOp =  1
 Nuclear Repulsion Energy =  1391.9539791486 hartrees
 There are       68 alpha and       68 beta electrons
 Applying Cartesian multipole field
    Component          Value
    ---------          -----
     (2,0,0)        1.00000E-12
     (0,2,0)        2.00000E-11
     (0,0,2)       -3.00000E-11
 Nucleus-field energy     =     0.0000000189 hartrees
 Requested basis set is 6-31G(d,p)
 There are 144 shells and 390 basis functions
 A cutoff of  1.0D-11 yielded   6660 shell pairs
 There are     50509 function pairs
 Smallest overlap matrix eigenvalue = 1.23E-03
 Guess MOs from SCF MO coefficient file

 -----------------------------------------------------------------------
  General SCF calculation program by
  Eric Jon Sundstrom, Paul Horn, Yuezhi Mao, Dmitri Zuev, Alec White,
  David Stuck, Shaama M.S., Shane Yost, Joonho Lee, David Small,
  Daniel Levine, Susi Lehtola, Hugh Burton, Evgeny Epifanovsky
 -----------------------------------------------------------------------
 Exchange:     0.2000 Hartree-Fock + 0.0800 Slater + 0.7200 B88
 Correlation:  0.1900 VWN1RPA + 0.8100 LYP
 Using SG-1 standard quadrature grid
 using 12 threads for integral computing
 -------------------------------------------------------
 OpenMP Integral computing Module                
 Release: version 1.0, May 2013, Q-Chem Inc. Pittsburgh 
 -------------------------------------------------------
 -------------------------------------------------------
 OpenMP BLAS3 based DFT computing Module                
 Release: version 1.0, May 2013, Q-Chem Inc. Pittsburgh 
 -------------------------------------------------------
 A restricted SCF calculation will be
 performed using DIIS
 SCF converges when DIIS error is below 1.0e-08
 ---------------------------------------
  Cycle       Energy         DIIS error
 ---------------------------------------
    1    -774.4433007875      5.40e-04  
    2    -774.4517378768      1.37e-04  
    3    -774.4516796362      1.53e-04  
    4    -774.4520870934      3.43e-05  
    5    -774.4521058747      1.31e-05  
    6    -774.4521090679      3.03e-06  
    7    -774.4521092122      1.39e-06  
    8    -774.4521092454      4.43e-07  
    9    -774.4521092488      1.05e-07  
   10    -774.4521092489      4.56e-08  
   11    -774.4521092490      1.64e-08  
   12    -774.4521092490      4.00e-09  Convergence criterion met
 ---------------------------------------
 SCF time:   CPU 486.43s  wall 41.00s 
 SCF   energy in the final basis set =     -774.4521092490
 Total energy in the final basis set =     -774.4521092490
 
 --------------------------------------------------------------
 
                    Orbital Energies (a.u.)
 --------------------------------------------------------------
 
 Alpha MOs
 -- Occupied --
-19.193 -19.190 -10.252 -10.250 -10.206 -10.198 -10.194 -10.192
-10.190 -10.188 -10.184 -10.181 -10.181 -10.180 -10.180 -10.179
-10.179 -10.168  -1.163  -0.892  -0.847  -0.817  -0.785  -0.775
 -0.755  -0.728  -0.689  -0.684  -0.675  -0.669  -0.611  -0.588
 -0.567  -0.558  -0.529  -0.520  -0.508  -0.502  -0.477  -0.460
 -0.449  -0.445  -0.432  -0.430  -0.423  -0.422  -0.414  -0.403
 -0.397  -0.393  -0.389  -0.384  -0.372  -0.368  -0.360  -0.358
 -0.353  -0.343  -0.339  -0.334  -0.325  -0.321  -0.308  -0.305
 -0.295  -0.228  -0.216  -0.216
 -- Virtual --
 -0.026   0.012   0.045   0.066   0.085   0.088   0.099   0.108
  0.116   0.123   0.126   0.129   0.134   0.140   0.144   0.157
  0.161   0.163   0.169   0.181   0.183   0.184   0.190   0.195
  0.200   0.206   0.207   0.213   0.218   0.229   0.231   0.239
  0.245   0.251   0.265   0.275   0.280   0.286   0.297   0.316
  0.337   0.354   0.373   0.396   0.405   0.465   0.482   0.494
  0.502   0.510   0.521   0.526   0.540   0.543   0.550   0.563
  0.569   0.575   0.578   0.595   0.605   0.612   0.613   0.617
  0.626   0.643   0.645   0.648   0.662   0.671   0.672   0.679
  0.688   0.699   0.713   0.727   0.730   0.753   0.759   0.760
  0.771   0.783   0.796   0.797   0.809   0.820   0.829   0.831
  0.841   0.848   0.850   0.852   0.863   0.865   0.868   0.875
  0.885   0.888   0.893   0.907   0.910   0.923   0.928   0.929
  0.937   0.942   0.946   0.960   0.962   0.978   0.981   0.997
  1.004   1.022   1.050   1.058   1.062   1.085   1.091   1.112
  1.122   1.139   1.150   1.173   1.178   1.197   1.221   1.247
  1.260   1.277   1.301   1.309   1.320   1.336   1.363   1.367
  1.378   1.395   1.415   1.431   1.448   1.451   1.476   1.501
  1.505   1.535   1.547   1.577   1.587   1.606   1.622   1.641
  1.661   1.676   1.703   1.722   1.736   1.740   1.755   1.766
  1.778   1.791   1.799   1.815   1.827   1.849   1.858   1.869
  1.874   1.878   1.881   1.891   1.899   1.908   1.912   1.930
  1.947   1.955   1.960   1.971   1.977   1.992   1.999   2.012
  2.031   2.036   2.045   2.059   2.060   2.065   2.070   2.075
  2.087   2.095   2.097   2.105   2.115   2.122   2.125   2.132
  2.148   2.155   2.160   2.176   2.190   2.196   2.202   2.209
  2.217   2.220   2.252   2.257   2.277   2.279   2.293   2.308
  2.323   2.341   2.350   2.361   2.385   2.397   2.414   2.420
  2.428   2.430   2.450   2.451   2.472   2.494   2.503   2.505
  2.521   2.536   2.542   2.555   2.586   2.597   2.608   2.611
  2.619   2.629   2.635   2.649   2.668   2.680   2.683   2.696
  2.707   2.714   2.720   2.729   2.738   2.754   2.762   2.776
  2.788   2.793   2.801   2.828   2.839   2.847   2.852   2.868
  2.872   2.877   2.885   2.892   2.911   2.932   2.937   2.964
  2.970   2.986   3.034   3.063   3.068   3.086   3.134   3.170
  3.201   3.223   3.231   3.248   3.273   3.286   3.310   3.343
  3.358   3.391   3.411   3.423   3.426   3.435   3.439   3.451
  3.465   3.474   3.486   3.503   3.523   3.565   3.586   3.693
  3.865   4.137   4.153   4.218   4.303   4.313   4.388   4.488
  4.510   4.515   4.541   4.591   4.623   4.666   4.721   4.726
  4.783   4.874
 --------------------------------------------------------------
 
          Ground-State Mulliken Net Atomic Charges

     Atom                 Charge (a.u.)
  ----------------------------------------
      1 C                    -0.162746
      2 C                    -0.192393
      3 C                    -0.223111
      4 C                     0.047381
      5 C                     0.063959
      6 C                    -0.008977
      7 C                     0.132728
      8 C                     0.135506
      9 C                     0.046454
     10 C                    -0.097041
     11 C                    -0.303693
     12 C                    -0.316356
     13 C                    -0.341515
     14 C                    -0.029408
     15 C                    -0.249453
     16 C                    -0.381730
     17 O                    -0.306284
     18 O                    -0.304596
     19 H                     0.089106
     20 H                     0.082377
     21 H                     0.097188
     22 H                     0.086631
     23 H                     0.103045
     24 H                     0.109032
     25 H                     0.110100
     26 H                     0.114225
     27 H                     0.108029
     28 H                     0.106003
     29 H                     0.093862
     30 H                     0.096843
     31 H                     0.105174
     32 H                     0.098143
     33 H                     0.096553
     34 H                     0.084690
     35 H                     0.123386
     36 H                     0.138213
     37 H                     0.079114
     38 H                     0.101876
     39 H                     0.096647
     40 H                     0.113161
     41 H                     0.128186
     42 H                     0.129690
  ----------------------------------------
  Sum of atomic charges =    -0.000000

 -----------------------------------------------------------------
                    Cartesian Multipole Moments
 -----------------------------------------------------------------
    Charge (ESU x 10^10)
                -0.0000
    Dipole Moment (Debye)
         X       1.1496      Y      -2.6130      Z      -0.0197
       Tot       2.8547
    Quadrupole Moments (Debye-Ang)
        XX    -105.5046     XY       4.1784     YY    -111.5210
        XZ      -0.6578     YZ      -0.1078     ZZ    -111.1835
    Octopole Moments (Debye-Ang^2)
       XXX     -15.3153    XXY       2.4614    XYY      -2.9695
       YYY       3.6140    XXZ       6.2455    XYZ       1.0639
       YYZ      -0.8768    XZZ       7.6661    YZZ       4.0362
       ZZZ      -1.5385
    Hexadecapole Moments (Debye-Ang^3)
      XXXX   -5579.8087   XXXY      -4.7179   XXYY   -1178.5680
      XYYY     -17.9051   YYYY   -1557.2611   XXXZ     -46.8196
      XXYZ     -10.2413   XYYZ      -1.5999   YYYZ      -4.5388
      XXZZ   -1086.9486   XYZZ       0.0253   YYZZ    -333.7862
      XZZZ       5.8820   YZZZ      -3.7626   ZZZZ    -414.7884
 -----------------------------------------------------------------
 Calculating analytic gradient of the SCF energy
 Gradient of SCF Energy
            1           2           3           4           5           6
    1  -0.0010543  -0.0048875  -0.0004515   0.0099946  -0.0068100   0.0024243
    2  -0.0000281  -0.0005981   0.0018116   0.0074251  -0.0068765   0.0021091
    3   0.0003189  -0.0001323   0.0032795   0.0014972  -0.0040561  -0.0037032
            7           8           9          10          11          12
    1  -0.0197842   0.0112387   0.0007753   0.0033960  -0.0000328   0.0032062
    2   0.0113970   0.0149653  -0.0023638   0.0073969   0.0021684   0.0009490
    3  -0.0008979  -0.0006536   0.0031561  -0.0020478   0.0036558  -0.0023801
           13          14          15          16          17          18
    1  -0.0030389  -0.0048780   0.0003295  -0.0014288  -0.0190395   0.0244608
    2  -0.0041651  -0.0084388   0.0033473   0.0001301  -0.0195177  -0.0103747
    3   0.0003901   0.0020549  -0.0003861   0.0019152  -0.0392176   0.0393874
           19          20          21          22          23          24
    1   0.0020696   0.0020575  -0.0012552   0.0032824   0.0020211  -0.0011861
    2   0.0020366  -0.0024841  -0.0007826   0.0006766  -0.0014576  -0.0009689
    3   0.0021802  -0.0009392  -0.0019385   0.0004115  -0.0044273   0.0031686
           25          26          27          28          29          30
    1  -0.0025711   0.0015853  -0.0016076   0.0002096  -0.0018214   0.0004183
    2   0.0009945   0.0029133  -0.0002264   0.0016327  -0.0000093  -0.0028851
    3   0.0043174  -0.0030169  -0.0001562  -0.0023083  -0.0001702  -0.0002019
           31          32          33          34          35          36
    1   0.0006557  -0.0000340  -0.0031772   0.0016468   0.0021054   0.0005770
    2   0.0015667  -0.0031759   0.0009117   0.0033609  -0.0007427   0.0001734
    3   0.0024224  -0.0000697  -0.0004405  -0.0008250   0.0047313  -0.0046374
           37          38          39          40          41          42
    1  -0.0019805   0.0009766   0.0007492   0.0018763  -0.0009137  -0.0001039
    2   0.0014379  -0.0002868  -0.0018054  -0.0008985   0.0000319   0.0006502
    3   0.0002571  -0.0001440   0.0000132  -0.0003470  -0.0031214   0.0030617
 Max gradient component =       3.939E-02
 RMS gradient           =       7.063E-03
 Gradient time:  CPU 163.91 s  wall 14.17 s
 Geometry Optimization Parameters
   NAtoms,    NIC,     NZ,  NCons,   NDum,   NFix, NCnnct, MaxDiis
       42     320       0       0       0       0       0       0

 Cartesian Hessian Update
 Hessian Updated using BFGS Update


** GEOMETRY OPTIMIZATION IN DELOCALIZED INTERNAL COORDINATES **
   Searching for a Minimum

   Optimization Cycle:   2

                       Coordinates (Angstroms)
     ATOM                X               Y               Z
      1  C         3.3842976679   -1.3290060250    0.3564978183
      2  C         4.1204033184   -0.3656536760   -0.5586467461
      3  C         3.7606941168    1.0576072284   -0.1471233750
      4  C         2.2840342066    1.2937052043    0.1164269233
      5  C         1.3852551803    0.2712355293    0.2298290073
      6  C         1.8509496800   -1.2122467061    0.1781961453
      7  C        -0.1195426581    0.4886557596    0.5027824646
      8  C        -1.1250459728    0.2937000237   -0.6612522086
      9  C        -2.4070299394   -0.4636163009   -0.3355925996
     10  C        -3.5643278546    0.2158738874   -0.1859211769
     11  C         1.4526354158   -1.8701900934   -1.1649169963
     12  C         1.2212518097   -2.0261416125    1.3341590990
     13  C         1.9737163854    2.7751234692    0.2645450106
     14  C        -4.8653842686   -0.3853114684    0.1279076673
     15  C        -5.9781230599    0.3521073698    0.2640963482
     16  C        -2.3411819844   -1.9726870589   -0.1999928854
     17  O        -0.5316847701    1.8544228502    0.5150661685
     18  O        -1.3270072009    1.7059906536   -0.6339171807
     19  H         3.6584898457   -1.0889831664    1.3978220740
     20  H         3.6939901831   -2.3703403168    0.1740316943
     21  H         3.8337701745   -0.5409046741   -1.6051583580
     22  H         5.2114138705   -0.5038932829   -0.4992951020
     23  H         4.1079632971    1.7501781280   -0.9313789890
     24  H         4.2998575025    1.3275102460    0.7779053973
     25  H        -0.4340806263    0.0118189468    1.4444131096
     26  H        -0.6810258949   -0.0012012135   -1.6235696458
     27  H        -3.5590456282    1.2954686107   -0.2989458419
     28  H         1.8515522197   -1.3189441894   -2.0264542995
     29  H         0.3682239991   -1.9196999544   -1.2973482954
     30  H         1.8258143604   -2.9051973184   -1.2161459375
     31  H         1.4884890013   -1.5914900738    2.3084738997
     32  H         1.5841814132   -3.0646078520    1.3120780846
     33  H         0.1267887606   -2.0694990059    1.2783610403
     34  H         2.8976060297    3.3656860233    0.1690028670
     35  H         1.5479933261    3.0062593967    1.2488036263
     36  H         1.2910192316    3.1291106135   -0.5166399102
     37  H        -4.9400064884   -1.4609177302    0.2555838406
     38  H        -5.9584012958    1.4316621515    0.1469144990
     39  H        -6.9303722707   -0.1146428167    0.4955312291
     40  H        -1.3330773940   -2.3621974400   -0.3671738195
     41  H        -2.9968271340   -2.4613509110   -0.9349375452
     42  H        -2.6498769790   -2.2909416301    0.8059870478
   Point Group: c1    Number of degrees of freedom:   120


   Energy is   -774.452109249

 Hessian Updated using BFGS Update

108 Hessian modes will be used to form the next step
  Hessian Eigenvalues:
     0.002000    0.002892    0.002977    0.004088    0.004356    0.007237
     0.007246    0.007914    0.008948    0.010411    0.011067    0.011596
     0.012246    0.013439    0.019696    0.020689    0.027743    0.030929
     0.030929    0.031142    0.031815    0.036030    0.037185    0.044705
     0.047501    0.049650    0.052115    0.052752    0.053676    0.054059
     0.054116    0.055003    0.060310    0.060884    0.068026    0.071684
     0.071812    0.072815    0.073895    0.075749    0.077998    0.078381
     0.081868    0.089534    0.096702    0.097837    0.101097    0.120781
     0.122696    0.125112    0.133718    0.157843    0.159096    0.160000
     0.160000    0.161196    0.186633    0.203633    0.218793    0.220257
     0.230522    0.245871    0.249882    0.249991    0.255611    0.262844
     0.265417    0.266579    0.278562    0.279152    0.288195    0.291019
     0.298173    0.301751    0.303374    0.308997    0.314055    0.321432
     0.323207    0.323522    0.323742    0.324050    0.324106    0.324501
     0.324548    0.324631    0.324974    0.325484    0.325590    0.326146
     0.327312    0.328181    0.328536    0.331364    0.335397    0.337674
     0.339204    0.340517    0.352795    0.353361    0.353629    0.354171
     0.393683    0.423350    0.459074    0.499262    0.530761    0.583312

 Minimum Search - Taking Simple RFO Step
 Searching for Lamda that Minimizes Along All modes
 Value Taken    Lamda =  -0.01256363
 Calculated Step too Large.  Step scaled by  0.754119
 Step Taken.  Stepsize is  0.300000

                             Maximum     Tolerance    Cnvgd?
         Gradient           0.033925      0.000300      NO
         Displacement       0.101981      0.001200      NO
         Energy change     -0.025411      0.000001      NO


 New Cartesian Coordinates Obtained by Inverse Iteration

 Displacement from previous Coordinates is:  1.576178
 ----------------------------------------------------------------
             Standard Nuclear Orientation (Angstroms)
    I     Atom           X                Y                Z
 ----------------------------------------------------------------
    1      C       3.4353936771    -1.2940362513     0.4025435954
    2      C       4.1633080639    -0.3171235589    -0.5113308450
    3      C       3.7288519204     1.0981357767    -0.1465874544
    4      C       2.2372507659     1.2690595411     0.0864468231
    5      C       1.3920045282     0.2201741817     0.2084692406
    6      C       1.9044420765    -1.2501522630     0.1896998390
    7      C      -0.1011690923     0.4184755242     0.4784079598
    8      C      -1.1544969339     0.2493355216    -0.6689371824
    9      C      -2.4543958986    -0.4658507565    -0.3501941271
   10      C      -3.5711190753     0.2583813314    -0.1415474999
   11      C       1.5841963453    -1.9448496062    -1.1580522779
   12      C       1.2870782486    -2.0817286922     1.3417234905
   13      C       1.8534419818     2.7387678033     0.2013186732
   14      C      -4.8904583909    -0.2820945045     0.1559953154
   15      C      -5.9700000761     0.4899205502     0.3590015420
   16      C      -2.4482245515    -1.9806431738    -0.3028170059
   17      O      -0.5047525013     1.8047486031     0.5376017030
   18      O      -1.3166075994     1.6842026708    -0.6514794943
   19      H       3.6634793595    -1.0354855808     1.4456950508
   20      H       3.7842072531    -2.3225586033     0.2483346417
   21      H       3.9149111884    -0.5242882828    -1.5582101166
   22      H       5.2516414185    -0.4145531497    -0.4212642123
   23      H       4.0463116134     1.8023103755    -0.9269407357
   24      H       4.2442354595     1.4192727826     0.7724297934
   25      H      -0.3992598957    -0.0740091156     1.4097521848
   26      H      -0.7372642970    -0.0614588085    -1.6339084897
   27      H      -3.4983277510     1.3406472185    -0.1920892716
   28      H       1.9954037853    -1.3918601708    -2.0074746161
   29      H       0.5124498670    -2.0455480145    -1.3336198153
   30      H       2.0065067058    -2.9571985514    -1.1759766741
   31      H       1.5020032054    -1.6242457379     2.3136330160
   32      H       1.7178087702    -3.0893638321     1.3422943247
   33      H       0.2046806045    -2.1996886580     1.2611387260
   34      H       2.7522365692     3.3604929992     0.1234134872
   35      H       1.3778976640     2.9699630774     1.1569987540
   36      H       1.1680986784     3.0502112677    -0.5895569687
   37      H      -5.0039543836    -1.3621779571     0.2169595666
   38      H      -5.9073791417     1.5734971127     0.3094567275
   39      H      -6.9413290201     0.0594182019     0.5801191854
   40      H      -1.4644188208    -2.3965758712    -0.5215198236
   41      H      -3.1435661031    -2.4050511696    -1.0354931663
   42      H      -2.7427666422    -2.3500206543     0.6855702863
 ----------------------------------------------------------------
 Molecular Point Group                 C1    NOp =  1
 Largest Abelian Subgroup              C1    NOp =  1
 Nuclear Repulsion Energy =  1388.2145639825 hartrees
 There are       68 alpha and       68 beta electrons
 Applying Cartesian multipole field
    Component          Value
    ---------          -----
     (2,0,0)        1.00000E-12
     (0,2,0)        2.00000E-11
     (0,0,2)       -3.00000E-11
 Nucleus-field energy     =     0.0000000190 hartrees
 Requested basis set is 6-31G(d,p)
 There are 144 shells and 390 basis functions
 A cutoff of  1.0D-11 yielded   6601 shell pairs
 There are     50113 function pairs
 Smallest overlap matrix eigenvalue = 1.28E-03
 Guess MOs from SCF MO coefficient file

 -----------------------------------------------------------------------
  General SCF calculation program by
  Eric Jon Sundstrom, Paul Horn, Yuezhi Mao, Dmitri Zuev, Alec White,
  David Stuck, Shaama M.S., Shane Yost, Joonho Lee, David Small,
  Daniel Levine, Susi Lehtola, Hugh Burton, Evgeny Epifanovsky
 -----------------------------------------------------------------------
 Exchange:     0.2000 Hartree-Fock + 0.0800 Slater + 0.7200 B88
 Correlation:  0.1900 VWN1RPA + 0.8100 LYP
 Using SG-1 standard quadrature grid
 using 12 threads for integral computing
 -------------------------------------------------------
 OpenMP Integral computing Module                
 Release: version 1.0, May 2013, Q-Chem Inc. Pittsburgh 
 -------------------------------------------------------
 -------------------------------------------------------
 OpenMP BLAS3 based DFT computing Module                
 Release: version 1.0, May 2013, Q-Chem Inc. Pittsburgh 
 -------------------------------------------------------
 A restricted SCF calculation will be
 performed using DIIS
 SCF converges when DIIS error is below 1.0e-08
 ---------------------------------------
  Cycle       Energy         DIIS error
 ---------------------------------------
    1    -774.4397067786      6.88e-04  
    2    -774.4566921343      9.89e-05  
    3    -774.4566559498      1.34e-04  
    4    -774.4569633215      3.24e-05  
    5    -774.4569820249      1.09e-05  
    6    -774.4569843413      2.32e-06  
    7    -774.4569844316      1.00e-06  
    8    -774.4569844486      2.84e-07  
    9    -774.4569844500      1.34e-07  
   10    -774.4569844503      2.21e-08  
   11    -774.4569844503      8.14e-09  Convergence criterion met
 ---------------------------------------
 SCF time:   CPU 439.29s  wall 36.00s 
 SCF   energy in the final basis set =     -774.4569844503
 Total energy in the final basis set =     -774.4569844503
 
 --------------------------------------------------------------
 
                    Orbital Energies (a.u.)
 --------------------------------------------------------------
 
 Alpha MOs
 -- Occupied --
-19.195 -19.191 -10.253 -10.250 -10.206 -10.198 -10.192 -10.192
-10.189 -10.186 -10.182 -10.181 -10.180 -10.179 -10.179 -10.178
-10.178 -10.164  -1.141  -0.893  -0.847  -0.817  -0.785  -0.774
 -0.756  -0.726  -0.690  -0.686  -0.676  -0.669  -0.614  -0.590
 -0.568  -0.559  -0.526  -0.516  -0.503  -0.498  -0.477  -0.460
 -0.448  -0.446  -0.432  -0.429  -0.422  -0.421  -0.413  -0.404
 -0.396  -0.393  -0.388  -0.384  -0.373  -0.368  -0.360  -0.357
 -0.353  -0.344  -0.338  -0.334  -0.323  -0.320  -0.309  -0.307
 -0.295  -0.229  -0.222  -0.216
 -- Virtual --
 -0.028   0.008   0.034   0.060   0.087   0.087   0.099   0.106
  0.117   0.123   0.127   0.130   0.135   0.140   0.146   0.158
  0.161   0.166   0.167   0.181   0.185   0.185   0.191   0.196
  0.201   0.206   0.208   0.213   0.217   0.231   0.232   0.239
  0.247   0.252   0.265   0.276   0.280   0.285   0.298   0.310
  0.335   0.355   0.374   0.395   0.407   0.468   0.481   0.492
  0.501   0.503   0.517   0.523   0.536   0.543   0.552   0.564
  0.569   0.572   0.577   0.587   0.610   0.612   0.613   0.618
  0.628   0.641   0.645   0.647   0.663   0.669   0.673   0.682
  0.686   0.701   0.716   0.727   0.729   0.753   0.755   0.761
  0.774   0.784   0.800   0.801   0.810   0.821   0.829   0.833
  0.844   0.848   0.852   0.854   0.865   0.868   0.871   0.877
  0.883   0.888   0.893   0.908   0.916   0.924   0.927   0.930
  0.937   0.942   0.951   0.960   0.964   0.978   0.982   0.987
  0.999   1.015   1.026   1.058   1.063   1.074   1.083   1.115
  1.133   1.139   1.150   1.172   1.189   1.199   1.223   1.251
  1.264   1.282   1.303   1.309   1.320   1.336   1.361   1.366
  1.380   1.393   1.417   1.437   1.446   1.450   1.483   1.502
  1.506   1.534   1.551   1.576   1.594   1.601   1.625   1.640
  1.662   1.681   1.704   1.721   1.730   1.734   1.759   1.766
  1.776   1.790   1.797   1.820   1.825   1.845   1.852   1.866
  1.872   1.878   1.883   1.889   1.901   1.903   1.911   1.920
  1.941   1.951   1.959   1.968   1.973   1.991   2.001   2.010
  2.027   2.037   2.043   2.062   2.066   2.071   2.075   2.080
  2.093   2.096   2.103   2.106   2.117   2.124   2.130   2.135
  2.148   2.158   2.161   2.179   2.188   2.193   2.196   2.210
  2.221   2.233   2.242   2.253   2.265   2.281   2.287   2.301
  2.319   2.341   2.345   2.358   2.384   2.385   2.410   2.417
  2.421   2.428   2.447   2.454   2.472   2.493   2.503   2.511
  2.522   2.537   2.540   2.556   2.588   2.596   2.607   2.608
  2.621   2.633   2.637   2.648   2.667   2.681   2.688   2.702
  2.710   2.716   2.725   2.731   2.744   2.761   2.767   2.780
  2.792   2.793   2.804   2.830   2.841   2.850   2.858   2.867
  2.877   2.885   2.889   2.890   2.907   2.936   2.942   2.964
  2.979   2.994   3.044   3.072   3.082   3.095   3.148   3.178
  3.206   3.226   3.239   3.254   3.280   3.284   3.320   3.352
  3.368   3.396   3.418   3.429   3.434   3.443   3.451   3.467
  3.470   3.480   3.495   3.508   3.523   3.572   3.588   3.698
  3.852   4.144   4.158   4.218   4.300   4.311   4.388   4.481
  4.499   4.517   4.546   4.585   4.623   4.670   4.722   4.725
  4.790   4.843
 --------------------------------------------------------------
 
          Ground-State Mulliken Net Atomic Charges

     Atom                 Charge (a.u.)
  ----------------------------------------
      1 C                    -0.163203
      2 C                    -0.193699
      3 C                    -0.224124
      4 C                     0.050381
      5 C                     0.067118
      6 C                    -0.010409
      7 C                     0.128742
      8 C                     0.133558
      9 C                     0.049781
     10 C                    -0.094557
     11 C                    -0.305438
     12 C                    -0.319005
     13 C                    -0.334571
     14 C                    -0.029230
     15 C                    -0.250353
     16 C                    -0.386641
     17 O                    -0.311757
     18 O                    -0.308083
     19 H                     0.089558
     20 H                     0.082298
     21 H                     0.097848
     22 H                     0.087957
     23 H                     0.103796
     24 H                     0.109463
     25 H                     0.110408
     26 H                     0.112728
     27 H                     0.110453
     28 H                     0.107261
     29 H                     0.094132
     30 H                     0.098260
     31 H                     0.106582
     32 H                     0.099598
     33 H                     0.097439
     34 H                     0.079448
     35 H                     0.126196
     36 H                     0.136905
     37 H                     0.077368
     38 H                     0.101927
     39 H                     0.097597
     40 H                     0.113496
     41 H                     0.129919
     42 H                     0.130854
  ----------------------------------------
  Sum of atomic charges =    -0.000000

 -----------------------------------------------------------------
                    Cartesian Multipole Moments
 -----------------------------------------------------------------
    Charge (ESU x 10^10)
                -0.0000
    Dipole Moment (Debye)
         X       1.0703      Y      -2.7038      Z      -0.0344
       Tot       2.9081
    Quadrupole Moments (Debye-Ang)
        XX    -105.1911     XY       3.9629     YY    -111.2605
        XZ      -0.5819     YZ       0.1787     ZZ    -111.2037
    Octopole Moments (Debye-Ang^2)
       XXX     -16.0799    XXY       1.7460    XYY      -3.8069
       YYY       4.5752    XXZ       6.5013    XYZ      -0.5911
       YYZ      -0.5146    XZZ       7.4807    YZZ       3.6041
       ZZZ      -2.3818
    Hexadecapole Moments (Debye-Ang^3)
      XXXX   -5626.6512   XXXY      32.9508   XXYY   -1188.2453
      XYYY      15.8332   YYYY   -1564.6823   XXXZ     -46.7485
      XXYZ      -1.7384   XYYZ       0.2007   YYYZ      -3.8198
      XXZZ   -1095.6626   XYZZ      13.4368   YYZZ    -335.7261
      XZZZ      15.0759   YZZZ      -3.7311   ZZZZ    -417.4327
 -----------------------------------------------------------------
 Calculating analytic gradient of the SCF energy
 Gradient of SCF Energy
            1           2           3           4           5           6
    1  -0.0012209  -0.0002220   0.0004101   0.0000107   0.0013121   0.0010781
    2  -0.0008863  -0.0010525   0.0017468  -0.0017242   0.0020660   0.0005855
    3   0.0006606  -0.0011766   0.0012415   0.0015517  -0.0020034  -0.0015137
            7           8           9          10          11          12
    1  -0.0051952   0.0029175  -0.0016989   0.0025173   0.0007423   0.0005008
    2   0.0040167   0.0037282  -0.0003204   0.0004428  -0.0002585  -0.0007745
    3   0.0019067  -0.0033585   0.0008728  -0.0016758   0.0005930   0.0005697
           13          14          15          16          17          18
    1  -0.0053556  -0.0002179  -0.0004061  -0.0011529  -0.0015145   0.0085348
    2  -0.0029683  -0.0021773   0.0016523  -0.0014976  -0.0029773  -0.0035381
    3  -0.0001116   0.0002738   0.0000605   0.0013223  -0.0178221   0.0175462
           19          20          21          22          23          24
    1   0.0002751   0.0002847  -0.0007501   0.0004275   0.0004229  -0.0006431
    2   0.0004801  -0.0000082   0.0000686   0.0005862  -0.0009502  -0.0010187
    3  -0.0000397   0.0000323   0.0002202  -0.0003907  -0.0007009   0.0007171
           25          26          27          28          29          30
    1  -0.0003244  -0.0003166  -0.0008299  -0.0001887   0.0021647   0.0001004
    2   0.0022563   0.0030152  -0.0000233   0.0001663  -0.0004782  -0.0004020
    3   0.0008527  -0.0004024   0.0000867  -0.0004778  -0.0004338  -0.0003092
           31          32          33          34          35          36
    1   0.0001383  -0.0004748   0.0013033  -0.0007571  -0.0002684   0.0000027
    2   0.0000635  -0.0004072   0.0001825   0.0009309  -0.0007860  -0.0003805
    3   0.0000971  -0.0001309   0.0009061  -0.0000152   0.0016378  -0.0006804
           37          38          39          40          41          42
    1  -0.0003704   0.0002902   0.0001929  -0.0019218   0.0001220   0.0000809
    2   0.0004543  -0.0002055  -0.0005798   0.0001837   0.0003575   0.0004313
    3   0.0000802  -0.0000517  -0.0000290   0.0003709  -0.0004508   0.0001743
 Max gradient component =       1.782E-02
 RMS gradient           =       2.729E-03
 Gradient time:  CPU 161.97 s  wall 14.06 s
 Geometry Optimization Parameters
   NAtoms,    NIC,     NZ,  NCons,   NDum,   NFix, NCnnct, MaxDiis
       42     320       0       0       0       0       0       0

 Cartesian Hessian Update
 Hessian Updated using BFGS Update


** GEOMETRY OPTIMIZATION IN DELOCALIZED INTERNAL COORDINATES **
   Searching for a Minimum

   Optimization Cycle:   3

                       Coordinates (Angstroms)
     ATOM                X               Y               Z
      1  C         3.4353936771   -1.2940362513    0.4025435954
      2  C         4.1633080639   -0.3171235589   -0.5113308450
      3  C         3.7288519204    1.0981357767   -0.1465874544
      4  C         2.2372507659    1.2690595411    0.0864468231
      5  C         1.3920045282    0.2201741817    0.2084692406
      6  C         1.9044420765   -1.2501522630    0.1896998390
      7  C        -0.1011690923    0.4184755242    0.4784079598
      8  C        -1.1544969339    0.2493355216   -0.6689371824
      9  C        -2.4543958986   -0.4658507565   -0.3501941271
     10  C        -3.5711190753    0.2583813314   -0.1415474999
     11  C         1.5841963453   -1.9448496062   -1.1580522779
     12  C         1.2870782486   -2.0817286922    1.3417234905
     13  C         1.8534419818    2.7387678033    0.2013186732
     14  C        -4.8904583909   -0.2820945045    0.1559953154
     15  C        -5.9700000761    0.4899205502    0.3590015420
     16  C        -2.4482245515   -1.9806431738   -0.3028170059
     17  O        -0.5047525013    1.8047486031    0.5376017030
     18  O        -1.3166075994    1.6842026708   -0.6514794943
     19  H         3.6634793595   -1.0354855808    1.4456950508
     20  H         3.7842072531   -2.3225586033    0.2483346417
     21  H         3.9149111884   -0.5242882828   -1.5582101166
     22  H         5.2516414185   -0.4145531497   -0.4212642123
     23  H         4.0463116134    1.8023103755   -0.9269407357
     24  H         4.2442354595    1.4192727826    0.7724297934
     25  H        -0.3992598957   -0.0740091156    1.4097521848
     26  H        -0.7372642970   -0.0614588085   -1.6339084897
     27  H        -3.4983277510    1.3406472185   -0.1920892716
     28  H         1.9954037853   -1.3918601708   -2.0074746161
     29  H         0.5124498670   -2.0455480145   -1.3336198153
     30  H         2.0065067058   -2.9571985514   -1.1759766741
     31  H         1.5020032054   -1.6242457379    2.3136330160
     32  H         1.7178087702   -3.0893638321    1.3422943247
     33  H         0.2046806045   -2.1996886580    1.2611387260
     34  H         2.7522365692    3.3604929992    0.1234134872
     35  H         1.3778976640    2.9699630774    1.1569987540
     36  H         1.1680986784    3.0502112677   -0.5895569687
     37  H        -5.0039543836   -1.3621779571    0.2169595666
     38  H        -5.9073791417    1.5734971127    0.3094567275
     39  H        -6.9413290201    0.0594182019    0.5801191854
     40  H        -1.4644188208   -2.3965758712   -0.5215198236
     41  H        -3.1435661031   -2.4050511696   -1.0354931663
     42  H        -2.7427666422   -2.3500206543    0.6855702863
   Point Group: c1    Number of degrees of freedom:   120


   Energy is   -774.456984450

 Hessian Updated using BFGS Update

108 Hessian modes will be used to form the next step
  Hessian Eigenvalues:
     0.002068    0.002889    0.002976    0.004106    0.004374    0.007231
     0.007377    0.007916    0.008922    0.010385    0.011067    0.011601
     0.012514    0.013475    0.019697    0.020689    0.027661    0.030928
     0.030929    0.031140    0.031781    0.036434    0.037287    0.044609
     0.047380    0.049873    0.052610    0.052719    0.053422    0.053959
     0.054111    0.054858    0.058325    0.062013    0.069333    0.071806
     0.072806    0.073126    0.074036    0.075803    0.077590    0.078381
     0.081894    0.089440    0.095658    0.097675    0.100582    0.115954
     0.121476    0.127543    0.134150    0.152754    0.158721    0.160000
     0.160482    0.160967    0.186615    0.203817    0.212077    0.220401
     0.230143    0.238795    0.249920    0.251621    0.255338    0.261908
     0.265578    0.278000    0.279087    0.282679    0.290808    0.296401
     0.297993    0.303137    0.303867    0.309093    0.316877    0.321443
     0.323253    0.323664    0.323782    0.324066    0.324433    0.324501
     0.324607    0.324959    0.325482    0.325520    0.326039    0.327168
     0.327441    0.328172    0.328536    0.331332    0.335711    0.338637
     0.340029    0.352782    0.353347    0.353624    0.353816    0.362199
     0.393971    0.429021    0.483527    0.528967    0.582729    0.617299

 Minimum Search - Taking Simple RFO Step
 Searching for Lamda that Minimizes Along All modes
 Value Taken    Lamda =  -0.00875736
 Calculated Step too Large.  Step scaled by  0.815474
 Step Taken.  Stepsize is  0.300000

                             Maximum     Tolerance    Cnvgd?
         Gradient           0.031038      0.000300      NO
         Displacement       0.088155      0.001200      NO
         Energy change     -0.004875      0.000001      NO


 New Cartesian Coordinates Obtained by Inverse Iteration

 Displacement from previous Coordinates is:  1.592473
 ----------------------------------------------------------------
             Standard Nuclear Orientation (Angstroms)
    I     Atom           X                Y                Z
 ----------------------------------------------------------------
    1      C       3.3588249737    -1.3145821484     0.4279676795
    2      C       4.1398036699    -0.3819589080    -0.4900398105
    3      C       3.7586978921     1.0552657099    -0.1576928736
    4      C       2.2747030540     1.2989759351     0.0780344696
    5      C       1.3908019217     0.2875765711     0.2294820512
    6      C       1.8317662956    -1.2029521218     0.2140666470
    7      C      -0.0933060423     0.4875981788     0.4889281637
    8      C      -1.1518603405     0.2882006111    -0.6578050524
    9      C      -2.4218045998    -0.4672948579    -0.3569284056
   10      C      -3.5583763942     0.2092230682    -0.1032724482
   11      C       1.4732662647    -1.8785428341    -1.1351062901
   12      C       1.1684105302    -2.0077896909     1.3592181305
   13      C       1.9988690645     2.7987485782     0.1501621976
   14      C      -4.8543603639    -0.3791938982     0.1647931651
   15      C      -5.9640786067     0.3326404829     0.4164469942
   16      C      -2.3475192505    -1.9779936393    -0.3913217511
   17      O      -0.5547326048     1.8716813477     0.5773212624
   18      O      -1.3428009602     1.7348274601    -0.6722756156
   19      H       3.5876858959    -1.0672238340     1.4707798130
   20      H       3.6551715704    -2.3577355088     0.2823634372
   21      H       3.8945932078    -0.5948904303    -1.5345881563
   22      H       5.2175617851    -0.5318978052    -0.3879405864
   23      H       4.0931211594     1.7423518751    -0.9424691003
   24      H       4.2976047644     1.3822320531     0.7440833027
   25      H      -0.3858640955    -0.0342333632     1.4008439963
   26      H      -0.7177963760    -0.0369085464    -1.6088745430
   27      H      -3.5040042888     1.2941677514    -0.0963481056
   28      H       1.9205045556    -1.3521724974    -1.9796832771
   29      H       0.3972707449    -1.9145494486    -1.3113582095
   30      H       1.8376041659    -2.9099649806    -1.1484368440
   31      H       1.3847041258    -1.5601665993     2.3326412712
   32      H       1.5716163127    -3.0239170338     1.3644021469
   33      H       0.0862337828    -2.0956561473     1.2617926143
   34      H       2.9455781201     3.3360735903     0.0550779510
   35      H       1.5366944896     3.1025562576     1.0870951800
   36      H       1.3315850468     3.1413714947    -0.6397884772
   37      H      -4.9201538471    -1.4671057044     0.1606898048
   38      H      -5.9472264519     1.4195164384     0.4317977714
   39      H      -6.9196233839    -0.1408262492     0.6160759841
   40      H      -1.3480953037    -2.3299315237    -0.6477124827
   41      H      -3.0361450418    -2.4010221645    -1.1281160008
   42      H      -2.6065758663    -2.4180458932     0.5756981459
 ----------------------------------------------------------------
 Molecular Point Group                 C1    NOp =  1
 Largest Abelian Subgroup              C1    NOp =  1
 Nuclear Repulsion Energy =  1388.5077784290 hartrees
 There are       68 alpha and       68 beta electrons
 Applying Cartesian multipole field
    Component          Value
    ---------          -----
     (2,0,0)        1.00000E-12
     (0,2,0)        2.00000E-11
     (0,0,2)       -3.00000E-11
 Nucleus-field energy     =     0.0000000189 hartrees
 Requested basis set is 6-31G(d,p)
 There are 144 shells and 390 basis functions
 A cutoff of  1.0D-11 yielded   6667 shell pairs
 There are     50516 function pairs
 Smallest overlap matrix eigenvalue = 1.30E-03
 Guess MOs from SCF MO coefficient file

 -----------------------------------------------------------------------
  General SCF calculation program by
  Eric Jon Sundstrom, Paul Horn, Yuezhi Mao, Dmitri Zuev, Alec White,
  David Stuck, Shaama M.S., Shane Yost, Joonho Lee, David Small,
  Daniel Levine, Susi Lehtola, Hugh Burton, Evgeny Epifanovsky
 -----------------------------------------------------------------------
 Exchange:     0.2000 Hartree-Fock + 0.0800 Slater + 0.7200 B88
 Correlation:  0.1900 VWN1RPA + 0.8100 LYP
 Using SG-1 standard quadrature grid
 using 12 threads for integral computing
 -------------------------------------------------------
 OpenMP Integral computing Module                
 Release: version 1.0, May 2013, Q-Chem Inc. Pittsburgh 
 -------------------------------------------------------
 -------------------------------------------------------
 OpenMP BLAS3 based DFT computing Module                
 Release: version 1.0, May 2013, Q-Chem Inc. Pittsburgh 
 -------------------------------------------------------
 A restricted SCF calculation will be
 performed using DIIS
 SCF converges when DIIS error is below 1.0e-08
 ---------------------------------------
  Cycle       Energy         DIIS error
 ---------------------------------------
    1    -774.4431979624      6.68e-04  
    2    -774.4585866195      9.08e-05  
    3    -774.4586027012      1.13e-04  
    4    -774.4588028494      3.10e-05  
    5    -774.4588169084      1.12e-05  
    6    -774.4588187809      3.75e-06  
    7    -774.4588189927      1.34e-06  
    8    -774.4588190231      4.05e-07  
    9    -774.4588190257      1.60e-07  
   10    -774.4588190261      5.64e-08  
   11    -774.4588190261      1.78e-08  
   12    -774.4588190262      3.83e-09  Convergence criterion met
 ---------------------------------------
 SCF time:   CPU 482.48s  wall 40.00s 
 SCF   energy in the final basis set =     -774.4588190262
 Total energy in the final basis set =     -774.4588190262
 
 --------------------------------------------------------------
 
                    Orbital Energies (a.u.)
 --------------------------------------------------------------
 
 Alpha MOs
 -- Occupied --
-19.196 -19.193 -10.252 -10.249 -10.207 -10.198 -10.194 -10.191
-10.189 -10.187 -10.183 -10.182 -10.180 -10.179 -10.179 -10.179
-10.179 -10.167  -1.120  -0.891  -0.849  -0.819  -0.787  -0.774
 -0.758  -0.724  -0.692  -0.688  -0.679  -0.670  -0.618  -0.590
 -0.570  -0.559  -0.524  -0.514  -0.500  -0.491  -0.477  -0.461
 -0.450  -0.447  -0.433  -0.429  -0.423  -0.422  -0.414  -0.406
 -0.398  -0.394  -0.389  -0.385  -0.374  -0.368  -0.361  -0.355
 -0.353  -0.344  -0.336  -0.335  -0.325  -0.320  -0.311  -0.308
 -0.296  -0.231  -0.227  -0.215
 -- Virtual --
 -0.030  -0.002   0.025   0.064   0.085   0.089   0.098   0.105
  0.117   0.123   0.127   0.130   0.135   0.140   0.146   0.156
  0.161   0.166   0.168   0.179   0.184   0.187   0.190   0.195
  0.201   0.207   0.209   0.213   0.216   0.231   0.233   0.241
  0.248   0.251   0.265   0.274   0.280   0.286   0.300   0.321
  0.335   0.355   0.374   0.396   0.412   0.468   0.480   0.491
  0.501   0.504   0.518   0.523   0.538   0.543   0.552   0.560
  0.570   0.573   0.578   0.593   0.606   0.610   0.615   0.618
  0.628   0.643   0.646   0.650   0.663   0.668   0.673   0.676
  0.689   0.703   0.721   0.725   0.729   0.753   0.755   0.761
  0.772   0.790   0.800   0.805   0.812   0.822   0.830   0.832
  0.844   0.849   0.853   0.854   0.863   0.868   0.871   0.879
  0.886   0.892   0.895   0.910   0.918   0.925   0.930   0.933
  0.939   0.948   0.950   0.963   0.965   0.979   0.983   0.999
  1.005   1.023   1.045   1.052   1.061   1.083   1.091   1.116
  1.125   1.137   1.148   1.167   1.176   1.195   1.222   1.240
  1.259   1.293   1.301   1.308   1.324   1.341   1.360   1.367
  1.386   1.394   1.416   1.440   1.446   1.453   1.473   1.504
  1.515   1.533   1.548   1.573   1.588   1.607   1.624   1.638
  1.660   1.670   1.697   1.714   1.724   1.730   1.758   1.763
  1.779   1.786   1.796   1.814   1.817   1.845   1.851   1.862
  1.869   1.871   1.881   1.887   1.891   1.894   1.906   1.913
  1.922   1.945   1.954   1.966   1.975   1.990   1.997   2.009
  2.024   2.034   2.042   2.058   2.065   2.071   2.074   2.083
  2.093   2.102   2.103   2.108   2.117   2.126   2.135   2.140
  2.146   2.157   2.160   2.177   2.185   2.197   2.201   2.207
  2.212   2.226   2.233   2.249   2.257   2.276   2.289   2.297
  2.319   2.338   2.345   2.358   2.376   2.389   2.406   2.410
  2.420   2.433   2.447   2.451   2.469   2.493   2.495   2.511
  2.525   2.536   2.539   2.550   2.576   2.592   2.605   2.609
  2.621   2.634   2.640   2.652   2.667   2.681   2.691   2.697
  2.709   2.715   2.726   2.736   2.744   2.764   2.768   2.786
  2.793   2.796   2.806   2.827   2.841   2.851   2.858   2.865
  2.876   2.886   2.888   2.896   2.908   2.942   2.945   2.970
  2.984   3.001   3.047   3.076   3.088   3.103   3.159   3.173
  3.213   3.229   3.243   3.263   3.281   3.289   3.326   3.360
  3.376   3.398   3.426   3.436   3.439   3.444   3.448   3.472
  3.478   3.486   3.494   3.513   3.530   3.574   3.593   3.703
  3.842   4.137   4.154   4.214   4.298   4.309   4.383   4.462
  4.499   4.519   4.540   4.580   4.622   4.669   4.708   4.729
  4.791   4.821
 --------------------------------------------------------------
 
          Ground-State Mulliken Net Atomic Charges

     Atom                 Charge (a.u.)
  ----------------------------------------
      1 C                    -0.164451
      2 C                    -0.194496
      3 C                    -0.227122
      4 C                     0.051545
      5 C                     0.071522
      6 C                    -0.012708
      7 C                     0.130274
      8 C                     0.131951
      9 C                     0.059890
     10 C                    -0.097128
     11 C                    -0.302200
     12 C                    -0.321674
     13 C                    -0.346218
     14 C                    -0.028689
     15 C                    -0.251109
     16 C                    -0.387649
     17 O                    -0.316983
     18 O                    -0.315594
     19 H                     0.090700
     20 H                     0.082436
     21 H                     0.098357
     22 H                     0.089267
     23 H                     0.104266
     24 H                     0.109814
     25 H                     0.112614
     26 H                     0.113296
     27 H                     0.110933
     28 H                     0.107433
     29 H                     0.092158
     30 H                     0.098373
     31 H                     0.107950
     32 H                     0.099363
     33 H                     0.100463
     34 H                     0.087251
     35 H                     0.128036
     36 H                     0.136976
     37 H                     0.076284
     38 H                     0.101964
     39 H                     0.098433
     40 H                     0.114012
     41 H                     0.129543
     42 H                     0.130916
  ----------------------------------------
  Sum of atomic charges =    -0.000000

 -----------------------------------------------------------------
                    Cartesian Multipole Moments
 -----------------------------------------------------------------
    Charge (ESU x 10^10)
                -0.0000
    Dipole Moment (Debye)
         X       1.2770      Y      -2.7914      Z      -0.0623
       Tot       3.0703
    Quadrupole Moments (Debye-Ang)
[...]
  Cycle       Energy         DIIS error
 ---------------------------------------
    1    -774.4675491863      3.00e-04  
    2    -774.4708754018      2.96e-05  
    3    -774.4709104434      1.75e-05  
    4    -774.4709144733      9.86e-06  
    5    -774.4709159106      3.50e-06  
    6    -774.4709160887      1.03e-06  
    7    -774.4709161039      3.92e-07  
    8    -774.4709161066      7.04e-08  
    9    -774.4709161066      3.32e-08  
   10    -774.4709161067      1.63e-08  
   11    -774.4709161067      4.77e-09  Convergence criterion met
 ---------------------------------------
 SCF time:   CPU 442.12s  wall 37.00s 
 SCF   energy in the final basis set =     -774.4709161067
 Total energy in the final basis set =     -774.4709161067
 
 --------------------------------------------------------------
 
                    Orbital Energies (a.u.)
 --------------------------------------------------------------
 
 Alpha MOs
 -- Occupied --
-19.194 -19.192 -10.246 -10.244 -10.205 -10.200 -10.200 -10.192
-10.191 -10.189 -10.187 -10.186 -10.184 -10.183 -10.181 -10.179
-10.176 -10.175  -1.115  -0.891  -0.851  -0.820  -0.791  -0.778
 -0.761  -0.723  -0.689  -0.687  -0.680  -0.675  -0.619  -0.592
 -0.577  -0.560  -0.528  -0.514  -0.498  -0.489  -0.479  -0.456
 -0.449  -0.446  -0.433  -0.428  -0.422  -0.419  -0.413  -0.405
 -0.401  -0.399  -0.392  -0.384  -0.375  -0.371  -0.360  -0.356
 -0.352  -0.348  -0.345  -0.337  -0.326  -0.320  -0.313  -0.309
 -0.293  -0.241  -0.228  -0.216
 -- Virtual --
 -0.035  -0.009   0.020   0.073   0.076   0.093   0.097   0.106
  0.117   0.121   0.125   0.129   0.133   0.141   0.148   0.154
  0.161   0.170   0.173   0.178   0.185   0.190   0.193   0.194
  0.200   0.202   0.205   0.209   0.217   0.225   0.229   0.232
  0.247   0.251   0.264   0.272   0.282   0.288   0.294   0.313
  0.336   0.353   0.377   0.396   0.402   0.461   0.469   0.479
  0.492   0.502   0.508   0.516   0.527   0.531   0.542   0.563
  0.567   0.572   0.580   0.586   0.598   0.607   0.614   0.622
  0.623   0.638   0.641   0.647   0.665   0.673   0.679   0.693
  0.696   0.699   0.713   0.719   0.724   0.738   0.762   0.769
  0.779   0.786   0.799   0.803   0.808   0.818   0.825   0.841
  0.843   0.854   0.858   0.858   0.870   0.880   0.883   0.889
  0.894   0.900   0.906   0.909   0.916   0.920   0.924   0.928
  0.931   0.941   0.947   0.953   0.961   0.966   0.969   0.971
  0.993   1.004   1.013   1.032   1.055   1.063   1.075   1.092
  1.124   1.132   1.142   1.151   1.163   1.213   1.227   1.241
  1.260   1.272   1.285   1.303   1.323   1.350   1.358   1.361
  1.376   1.405   1.412   1.425   1.431   1.471   1.475   1.498
  1.500   1.531   1.542   1.553   1.576   1.596   1.613   1.617
  1.641   1.662   1.703   1.720   1.735   1.737   1.747   1.767
  1.774   1.781   1.798   1.803   1.807   1.835   1.845   1.852
  1.859   1.861   1.864   1.881   1.888   1.899   1.908   1.919
  1.925   1.937   1.947   1.959   1.974   1.981   1.983   2.014
  2.025   2.033   2.035   2.055   2.056   2.061   2.067   2.071
  2.083   2.089   2.098   2.103   2.111   2.118   2.123   2.131
  2.134   2.140   2.157   2.168   2.171   2.186   2.187   2.203
  2.207   2.213   2.243   2.245   2.266   2.277   2.299   2.312
  2.326   2.342   2.349   2.365   2.367   2.371   2.381   2.397
  2.405   2.417   2.431   2.450   2.463   2.481   2.487   2.494
  2.510   2.518   2.532   2.544   2.574   2.591   2.599   2.619
  2.627   2.636   2.642   2.648   2.670   2.683   2.686   2.700
  2.704   2.715   2.724   2.738   2.752   2.760   2.772   2.786
  2.793   2.798   2.807   2.815   2.826   2.840   2.844   2.870
  2.874   2.875   2.885   2.894   2.919   2.928   2.945   2.960
  2.977   2.995   3.059   3.067   3.072   3.090   3.151   3.176
  3.199   3.222   3.231   3.245   3.270   3.275   3.315   3.334
  3.390   3.407   3.429   3.435   3.442   3.445   3.450   3.454
  3.469   3.478   3.492   3.501   3.513   3.568   3.572   3.698
  3.735   4.135   4.170   4.213   4.302   4.307   4.375   4.433
  4.470   4.509   4.516   4.573   4.607   4.645   4.699   4.734
  4.795   4.894
 --------------------------------------------------------------
 
          Ground-State Mulliken Net Atomic Charges

     Atom                 Charge (a.u.)
  ----------------------------------------
      1 C                    -0.172545
      2 C                    -0.191980
      3 C                    -0.221496
      4 C                     0.046027
      5 C                     0.106636
      6 C                    -0.016880
      7 C                     0.145634
      8 C                     0.140571
      9 C                     0.066741
     10 C                    -0.112050
     11 C                    -0.311330
     12 C                    -0.310726
     13 C                    -0.383903
     14 C                    -0.029032
     15 C                    -0.249946
     16 C                    -0.380051
     17 O                    -0.314218
     18 O                    -0.322766
     19 H                     0.092308
     20 H                     0.085627
     21 H                     0.096145
     22 H                     0.090123
     23 H                     0.098848
     24 H                     0.110974
     25 H                     0.093896
     26 H                     0.096415
     27 H                     0.108070
     28 H                     0.102193
     29 H                     0.103006
     30 H                     0.101172
     31 H                     0.110617
     32 H                     0.099796
     33 H                     0.103241
     34 H                     0.108225
     35 H                     0.111098
     36 H                     0.156030
     37 H                     0.077864
     38 H                     0.102700
     39 H                     0.099498
     40 H                     0.111514
     41 H                     0.122233
     42 H                     0.129720
  ----------------------------------------
  Sum of atomic charges =    -0.000000

 -----------------------------------------------------------------
                    Cartesian Multipole Moments
 -----------------------------------------------------------------
    Charge (ESU x 10^10)
                -0.0000
    Dipole Moment (Debye)
         X       1.5044      Y      -2.3330      Z      -2.0925
       Tot       3.4763
    Quadrupole Moments (Debye-Ang)
        XX    -104.7244     XY       4.8660     YY    -114.1601
        XZ       1.1971     YZ      -3.5460     ZZ    -110.4646
    Octopole Moments (Debye-Ang^2)
       XXX      -8.6142    XXY      -7.2691    XYY      11.4555
       YYY       4.3680    XXZ      -7.3207    XYZ      -5.5579
       YYZ     -20.7435    XZZ      -4.1580    YZZ      -0.2071
       ZZZ     -41.3163
    Hexadecapole Moments (Debye-Ang^3)
      XXXX   -4988.4589   XXXY     112.3829   XXYY   -1093.1699
      XYYY      21.7951   YYYY   -1391.2079   XXXZ    -102.1280
      XXYZ      42.9327   XYYZ      -3.4931   YYYZ      30.8171
      XXZZ    -993.1747   XYZZ       8.6695   YYZZ    -383.9578
      XZZZ     -55.3226   YZZZ      40.3157   ZZZZ    -880.7767
 -----------------------------------------------------------------
 Calculating analytic gradient of the SCF energy
 Gradient of SCF Energy
            1           2           3           4           5           6
    1   0.0001027   0.0001341  -0.0001643  -0.0000917  -0.0000250  -0.0001898
    2  -0.0001916   0.0000916  -0.0001680   0.0002551   0.0003318  -0.0000648
    3   0.0001101  -0.0002253  -0.0001399   0.0005616  -0.0005042  -0.0000679
            7           8           9          10          11          12
    1   0.0000665   0.0005761  -0.0006082   0.0001960  -0.0000197  -0.0000026
    2   0.0001999  -0.0001013  -0.0000149  -0.0000223  -0.0001211   0.0002733
    3   0.0006557  -0.0008640   0.0005414   0.0003200  -0.0000926  -0.0002374
           13          14          15          16          17          18
    1   0.0011032  -0.0001060  -0.0000857   0.0006601   0.0005544  -0.0009889
    2   0.0000385  -0.0002359   0.0000645  -0.0002957  -0.0005856   0.0003388
    3  -0.0010723  -0.0003009   0.0000937  -0.0000214   0.0003937  -0.0004517
           19          20          21          22          23          24
    1   0.0000315   0.0000808  -0.0001680   0.0000093   0.0000448  -0.0000565
    2  -0.0000025   0.0000312   0.0000892  -0.0000099   0.0001989  -0.0001101
    3   0.0000370   0.0000150   0.0001264  -0.0001978   0.0000139   0.0001805
           25          26          27          28          29          30
    1  -0.0001234  -0.0000956  -0.0000419   0.0000471  -0.0000007   0.0000070
    2   0.0000958   0.0001458  -0.0000975   0.0000224  -0.0001720   0.0000571
    3   0.0001829   0.0001545  -0.0000173   0.0000810  -0.0000564   0.0001105
           31          32          33          34          35          36
    1   0.0000043  -0.0000520  -0.0001802   0.0000998  -0.0001803  -0.0004398
    2  -0.0000028  -0.0001061   0.0000597   0.0001477   0.0001273  -0.0004814
    3  -0.0000235   0.0000905  -0.0001046   0.0000908  -0.0000902   0.0006731
           37          38          39          40          41          42
    1   0.0000904   0.0000733   0.0000117   0.0000054  -0.0000719  -0.0002062
    2  -0.0000143   0.0000188  -0.0000369   0.0000628   0.0002743  -0.0000899
    3   0.0000406  -0.0000197  -0.0000351   0.0001165  -0.0002046   0.0001371
 Max gradient component =       1.103E-03
 RMS gradient           =       2.866E-04
 Gradient time:  CPU 162.13 s  wall 14.07 s
 Geometry Optimization Parameters
   NAtoms,    NIC,     NZ,  NCons,   NDum,   NFix, NCnnct, MaxDiis
       42     320       0       0       0       0       0       0

 Cartesian Hessian Update
 Hessian Updated using BFGS Update


** GEOMETRY OPTIMIZATION IN DELOCALIZED INTERNAL COORDINATES **
   Searching for a Minimum

   Optimization Cycle:  24

                       Coordinates (Angstroms)
     ATOM                X               Y               Z
      1  C         3.3224105490   -1.4242489470    0.5200611427
      2  C         3.7637559789   -0.7766199516   -0.7895227245
      3  C         3.5211322773    0.7264751113   -0.6913830112
      4  C         2.1272747913    1.0764058252   -0.2094691440
      5  C         1.3310742416    0.1750130102    0.4113529674
      6  C         1.8102269363   -1.2422521806    0.8010543158
      7  C        -0.1024574866    0.4781723921    0.7808100722
      8  C        -1.1442938047    1.0153924404   -0.2327703480
      9  C        -2.2715690695    0.1322776336   -0.6893225109
     10  C        -3.4086207891    0.0643978785    0.0350381883
     11  C         1.0143160044   -2.3157478711    0.0203862615
     12  C         1.6033985058   -1.4761277867    2.3182848402
     13  C         1.7539332730    2.5106868740   -0.5076971871
     14  C        -4.5815393759   -0.7400298380   -0.2687771871
     15  C        -5.6820855404   -0.7565621834    0.4989974306
     16  C        -2.0076842051   -0.6369491433   -1.9635277305
     17  O        -0.3183357060    1.6890151455    1.5745551655
     18  O        -1.5290249520    2.0115984903    0.7544995213
     19  H         3.8951943376   -0.9687350272    1.3392180699
     20  H         3.5592046357   -2.4951042801    0.5373705584
     21  H         3.1914798340   -1.1887798934   -1.6302848520
     22  H         4.8200708003   -0.9848385657   -0.9938084796
     23  H         3.6854380659    1.2170020770   -1.6604515822
     24  H         4.2566826557    1.1810805056   -0.0091606293
     25  H        -0.5497919596   -0.3620068029    1.3195791652
     26  H        -0.6733059660    1.5029068959   -1.0961538719
     27  H        -3.4650189405    0.6783506368    0.9309704273
     28  H         1.1950477599   -2.2432218513   -1.0565705789
     29  H        -0.0642570423   -2.2242437695    0.1842587518
     30  H         1.3083296775   -3.3196000546    0.3478191408
     31  H         2.0898633415   -0.6897557821    2.9041423499
     32  H         2.0467100835   -2.4361079250    2.6070137542
     33  H         0.5491193792   -1.5090469105    2.6083547457
     34  H         1.6366939039    2.6640663413   -1.5889233949
     35  H         2.5745354476    3.1700958002   -0.1970200008
     36  H         0.8537168241    2.8388316167    0.0072474667
     37  H        -4.5556592573   -1.3635679997   -1.1599273053
     38  H        -5.7495080886   -0.1553937084    1.4018938092
     39  H        -6.5428569378   -1.3689300452    0.2511446561
     40  H        -1.3502238702   -0.0684387667   -2.6300930434
     41  H        -2.9261918860   -0.8548868583   -2.5138548045
     42  H        -1.5088348510   -1.5941209569   -1.7653302651
   Point Group: c1    Number of degrees of freedom:   120


   Energy is   -774.470916107

 Hessian Updated using BFGS Update

120 Hessian modes will be used to form the next step
  Hessian Eigenvalues:
     0.001131    0.002863    0.003252    0.004097    0.005492    0.006909
     0.007402    0.009701    0.010607    0.011257    0.012245    0.014085
     0.018888    0.020257    0.020883    0.022537    0.029527    0.030938
     0.031268    0.032838    0.033906    0.038191    0.045379    0.046281
     0.050152    0.050659    0.053086    0.053883    0.054346    0.054716
     0.055875    0.058452    0.060454    0.068733    0.069699    0.071767
     0.073599    0.074258    0.077684    0.078332    0.079012    0.082296
     0.086690    0.092680    0.096936    0.099206    0.106259    0.121812
     0.128315    0.138026    0.153084    0.158500    0.158684    0.159636
     0.159825    0.160009    0.160014    0.160129    0.160197    0.160355
     0.160707    0.161231    0.162517    0.164012    0.165891    0.166991
     0.171013    0.176237    0.190416    0.208411    0.222593    0.226648
     0.231526    0.255188    0.260011    0.263267    0.268616    0.272627
     0.278555    0.280875    0.285889    0.291043    0.292301    0.300469
     0.302309    0.310886    0.313056    0.321229    0.321427    0.323302
     0.323716    0.323985    0.324039    0.324387    0.324711    0.325088
     0.325425    0.325820    0.326604    0.327701    0.328784    0.330196
     0.331482    0.333125    0.335315    0.338269    0.339889    0.351770
     0.352631    0.353297    0.353650    0.356671    0.363624    0.392593
     0.411193    0.464470    0.498215    0.558059    0.584062    0.791915

 Minimum Search - Taking Simple RFO Step
 Searching for Lamda that Minimizes Along All modes
 Value Taken    Lamda =  -0.00018917
 Step Taken.  Stepsize is  0.287598

                             Maximum     Tolerance    Cnvgd?
         Gradient           0.001808      0.000300      NO
         Displacement       0.113663      0.001200      NO
         Energy change     -0.000172      0.000001      NO


 New Cartesian Coordinates Obtained by Inverse Iteration

 Displacement from previous Coordinates is:  0.723350
 ----------------------------------------------------------------
             Standard Nuclear Orientation (Angstroms)
    I     Atom           X                Y                Z
 ----------------------------------------------------------------
    1      C       3.3177246770    -1.4257059890     0.5492230474
    2      C       3.7735694090    -0.7929751800    -0.7622162608
    3      C       3.5159238013     0.7102114023    -0.6974483374
    4      C       2.1217478570     1.0610402913    -0.2198559629
    5      C       1.3258417731     0.1681017950     0.4124885670
    6      C       1.8031161616    -1.2445660071     0.8159484162
    7      C      -0.1060748575     0.4781037983     0.7798033456
    8      C      -1.1405801236     1.0350033976    -0.2290252973
    9      C      -2.2688438366     0.1619967073    -0.7049343474
   10      C      -3.3908965879     0.0553375191     0.0383633434
   11      C       1.0096480562    -2.3175886803     0.0322183789
   12      C       1.5851120001    -1.4729126591     2.3330533993
   13      C       1.7450595614     2.4901507662    -0.5394865350
   14      C      -4.5632755730    -0.7483634285    -0.2689461901
   15      C      -5.6435170741    -0.8091436900     0.5250926647
   16      C      -2.0217740709    -0.5557598165    -2.0113663687
   17      O      -0.3149019893     1.6817504144     1.5875651136
   18      O      -1.5243026188     2.0168967625     0.7721868768
   19      H       3.8817642033    -0.9614703416     1.3694882812
   20      H       3.5556700867    -2.4960933141     0.5786070781
   21      H       3.2217483179    -1.2267829961    -1.6057525578
   22      H       4.8355630230    -0.9935958616    -0.9426918470
   23      H       3.6713727870     1.1776822140    -1.6794046992
   24      H       4.2489751042     1.1906495513    -0.0306120919
   25      H      -0.5610483432    -0.3681066376     1.3024247494
   26      H      -0.6631888242     1.5303006851    -1.0844439206
   27      H      -3.4340729651     0.6361994450     0.9570679076
   28      H       1.2011505519    -2.2510527128    -1.0436285826
   29      H      -0.0699681495    -2.2152721970     0.1849747254
   30      H       1.2926169838    -3.3226560218     0.3660147467
   31      H       2.0615495328    -0.6808576135     2.9195270977
   32      H       2.0338679485    -2.4280589929     2.6287143951
   33      H       0.5290735884    -1.5130924392     2.6160221657
   34      H       1.5556964988     2.6040854890    -1.6159532253
   35      H       2.5976857794     3.1446959127    -0.3157166180
   36      H       0.8870091146     2.8545218131     0.0195870984
   37      H      -4.5547037445    -1.3348282935    -1.1854231370
   38      H      -5.6943311612    -0.2470288301     1.4538513107
   39      H      -6.5035706717    -1.4210170265     0.2737337537
   40      H      -1.4330565079     0.0698931323    -2.6914697139
   41      H      -2.9503551018    -0.8190563268    -2.5228320061
   42      H      -1.4546750406    -1.4841844655    -1.8647446141
 ----------------------------------------------------------------
 Molecular Point Group                 C1    NOp =  1
 Largest Abelian Subgroup              C1    NOp =  1
 Nuclear Repulsion Energy =  1390.7805981991 hartrees
 There are       68 alpha and       68 beta electrons
 Applying Cartesian multipole field
    Component          Value
    ---------          -----
     (2,0,0)        1.00000E-12
     (0,2,0)        2.00000E-11
     (0,0,2)       -3.00000E-11
 Nucleus-field energy     =     0.0000000050 hartrees
 Requested basis set is 6-31G(d,p)
 There are 144 shells and 390 basis functions
 A cutoff of  1.0D-11 yielded   6749 shell pairs
 There are     50787 function pairs
 Smallest overlap matrix eigenvalue = 1.00E-03
 Guess MOs from SCF MO coefficient file

 -----------------------------------------------------------------------
  General SCF calculation program by
  Eric Jon Sundstrom, Paul Horn, Yuezhi Mao, Dmitri Zuev, Alec White,
  David Stuck, Shaama M.S., Shane Yost, Joonho Lee, David Small,
  Daniel Levine, Susi Lehtola, Hugh Burton, Evgeny Epifanovsky
 -----------------------------------------------------------------------
 Exchange:     0.2000 Hartree-Fock + 0.0800 Slater + 0.7200 B88
 Correlation:  0.1900 VWN1RPA + 0.8100 LYP
 Using SG-1 standard quadrature grid
 using 12 threads for integral computing
 -------------------------------------------------------
 OpenMP Integral computing Module                
 Release: version 1.0, May 2013, Q-Chem Inc. Pittsburgh 
 -------------------------------------------------------
 -------------------------------------------------------
 OpenMP BLAS3 based DFT computing Module                
 Release: version 1.0, May 2013, Q-Chem Inc. Pittsburgh 
 -------------------------------------------------------
 A restricted SCF calculation will be
 performed using DIIS
 SCF converges when DIIS error is below 1.0e-08
 ---------------------------------------
  Cycle       Energy         DIIS error
 ---------------------------------------
    1    -774.4650511787      3.88e-04  
