
Running Job 1 of 1 car_1_diox_opt_631g_gga.in
qchem car_1_diox_opt_631g_gga.in_9792.0 /scr/c295_lal/137092/qchem9792/ 1
/usr/software/qchem_511/exe/qcprog.exe_s car_1_diox_opt_631g_gga.in_9792.0 /scr/c295_lal/137092/qchem9792/
Check license passed

                  Welcome to Q-Chem
     A Quantum Leap Into The Future Of Chemistry


 Q-Chem 5.1, Q-Chem, Inc., Pleasanton, CA (2018)

 Yihan Shao,  Zhengting Gan,  E. Epifanovsky,  A. T. B. Gilbert,  M. Wormit,  
 J. Kussmann,  A. W. Lange,  A. Behn,  Jia Deng,  Xintian Feng,  D. Ghosh,  
 M. Goldey,  P. R. Horn,  L. D. Jacobson,  I. Kaliman,  T. Kus,  A. Landau,  
 Jie Liu,  E. I. Proynov,  R. M. Richard,  R. P. Steele,  E. J. Sundstrom,  
 H. L. Woodcock III,  P. M. Zimmerman,  D. Zuev,  B. Albrecht,  E. Alguire,  
 S. A. Baeppler,  D. Barton,  Z. Benda,  Y. A. Bernard,  E. J. Berquist,  
 K. B. Bravaya,  H. Burton,  D. Casanova,  Chun-Min Chang,  Yunqing Chen,  
 A. Chien,  K. D. Closser,  M. P. Coons,  S. Coriani,  S. Dasgupta,  
 A. L. Dempwolff,  M. Diedenhofen,  Hainam Do,  R. G. Edgar,  Po-Tung Fang,  
 S. Faraji,  S. Fatehi,  Qingguo Feng,  K. D. Fenk,  J. Fosso-Tande,  
 Qinghui Ge,  A. Ghysels,  G. Gidofalvi,  J. Gomes,  J. Gonthier,  A. Gunina,  
 D. Hait,  M. W. D. Hanson-Heine,  P. H. P. Harbach,  A. W. Hauser,  
 J. E. Herr,  E. G. Hohenstein,  Z. C. Holden,  Kerwin Hui,  B. C. Huynh,  
 T.-C. Jagau,  Hyunjun Ji,  B. Kaduk,  K. Khistyaev,  Jaehoon Kim,  
 P. Klunzinger,  K. Koh,  D. Kosenkov,  L. Koulias,  T. Kowalczyk,  
 C. M. Krauter,  A. Kunitsa,  Ka Un Lao,  A. Laurent,  K. V. Lawler,  
 Joonho Lee,  D. Lefrancois,  S. Lehtola,  D. S. Levine,  Yi-Pei Li,  
 You-Sheng Lin,  Fenglai Liu,  E. Livshits,  A. Luenser,  P. Manohar,  
 E. Mansoor,  S. F. Manzer,  Shan-Ping Mao,  Yuezhi Mao,  N. Mardirossian,  
 A. V. Marenich,  T. Markovich,  L. A. Martinez-Martinez,  S. A. Maurer,  
 N. J. Mayhall,  S. C. McKenzie,  J.-M. Mewes,  A. F. Morrison,  
 J. W. Mullinax,  K. Nanda,  T. S. Nguyen-Beck,  R. Olivares-Amaya,  
 J. A. Parkhill,  T. M. Perrine,  F. Plasser,  P. Pokhilko,  S. Prager,  
 A. Prociuk,  E. Ramos,  D. R. Rehn,  F. Rob,  M. Schneider,  N. Sergueev,  
 S. M. Sharada,  S. Sharma,  D. W. Small,  T. Stauch,  T. Stein,  
 Yu-Chuan Su,  A. J. W. Thom,  A. Tkatchenko,  T. Tsuchimochi,  N. M. Tubman,  
 L. Vogt,  M. L. Vidal,  O. Vydrov,  M. A. Watson,  J. Wenzel,  
 M. de Wergifosse,  T. A. Wesolowski,  A. White,  J. Witte,  A. Yamada,  
 Jun Yang,  K. Yao,  S. Yeganeh,  S. R. Yost,  Zhi-Qiang You,  A. Zech,  
 Igor Ying Zhang,  Xing Zhang,  Yan Zhao,  Ying Zhu,  B. R. Brooks,  
 G. K. L. Chan,  C. J. Cramer,  M. S. Gordon,  W. J. Hehre,  A. Klamt,  
 M. W. Schmidt,  C. D. Sherrill,  D. G. Truhlar,  A. Aspuru-Guzik,  R. Baer,  
 A. T. Bell,  N. A. Besley,  Jeng-Da Chai,  A. E. DePrince, III,  
 R. A. DiStasio Jr.,  A. Dreuw,  B. D. Dunietz,  T. R. Furlani,  
 Chao-Ping Hsu,  Yousung Jung,  Jing Kong,  D. S. Lambrecht,  WanZhen Liang,  
 C. Ochsenfeld,  V. A. Rassolov,  L. V. Slipchenko,  J. E. Subotnik,  
 T. Van Voorhis,  J. M. Herbert,  A. I. Krylov,  P. M. W. Gill,  M. Head-Gordon

 Contributors to earlier versions of Q-Chem not listed above: 
 R. D. Adamson,  B. Austin,  J. Baker,  G. J. O. Beran,  K. Brandhorst,  
 S. T. Brown,  E. F. C. Byrd,  A. K. Chakraborty,  C.-L. Cheng,  
 Siu Hung Chien,  D. M. Chipman,  D. L. Crittenden,  H. Dachsel,  
 R. J. Doerksen,  A. D. Dutoi,  L. Fusti-Molnar,  W. A. Goddard III,  
 A. Golubeva-Zadorozhnaya,  S. R. Gwaltney,  G. Hawkins,  A. Heyden,  
 S. Hirata,  G. Kedziora,  F. J. Keil,  C. Kelley,  Jihan Kim,  R. A. King,  
 R. Z. Khaliullin,  P. P. Korambath,  W. Kurlancheek,  A. M. Lee,  M. S. Lee,  
 S. V. Levchenko,  Ching Yeh Lin,  D. Liotard,  R. C. Lochan,  I. Lotan,  
 P. E. Maslen,  N. Nair,  D. P. O'Neill,  D. Neuhauser,  E. Neuscamman,  
 C. M. Oana,  R. Olson,  B. Peters,  R. Peverati,  P. A. Pieniazek,  
 Y. M. Rhee,  J. Ritchie,  M. A. Rohrdanz,  E. Rosta,  N. J. Russ,  
 H. F. Schaefer III,  N. E. Schultz,  N. Shenvi,  A. C. Simmonett,  A. Sodt,  
 D. Stuck,  K. S. Thanthiriwatte,  V. Vanovschi,  Tao Wang,  A. Warshel,  
 C. F. Williams,  Q. Wu,  X. Xu,  W. Zhang

 Please cite Q-Chem as follows:
 Y. Shao et al., Mol. Phys. 113, 184-215 (2015)
 DOI: 10.1080/00268976.2014.952696

 Q-Chem 5.1.1 for Intel X86 EM64T Linux

 Parts of Q-Chem use Armadillo 8.300.2 (Tropical Shenanigans).
 http://arma.sourceforge.net/

 Q-Chem begins on Wed Oct 31 16:14:21 2018  

Host: cub-0-6.local
0

     Scratch files written to /scr/c295_lal/137092/qchem9792//
 Aug318 |scratch|qcdevops|jenkins|workspace|build_RNUM -1
Processing $rem in /usr/software/qchem_511/config/preferences.
 MEM_TOTAL  2000 
Input Ideriv = 2
Curr. Ideriv = -1
Max.  Ideriv = 2

Checking the input file for inconsistencies... 	...done.

--------------------------------------------------------------
User input:
--------------------------------------------------------------
$molecule
0 1
C          1.09786        0.95703       -0.22304
C          1.56725       -0.16898        0.66819
C          0.88998       -1.45332        0.21777
C         -0.60454       -1.32893       -0.04619
C         -1.25817       -0.10643       -0.13569
C         -0.42922        1.21265       -0.04493
C         -2.79055        0.02159       -0.40961
C         -3.67452        0.38989        0.74818
C         -4.79269        1.39207        0.42283
C         -6.08046        0.97975        0.28022
C         -0.67544        1.90598        1.31651
C         -0.81452        2.18812       -1.18196
C         -1.27872       -2.67317       -0.22721
C         -7.21543        1.88699       -0.02986
C         -8.45821        1.41428       -0.15561
C         -4.45583        2.85586        0.27248
O         -3.45892       -1.20461       -0.40925
O         -4.15671       -0.91964        0.69060
H          1.32902        0.66606       -1.27380
H          1.67124        1.88540       -0.00517
H          1.32232        0.05121        1.72567
H          2.66924       -0.30065        0.60745
H          1.08760       -2.20737        1.01105
H          1.35327       -1.81803       -0.72538
H         -3.03666        0.55483       -1.35240
H         -3.15547        0.55164        1.71437
H         -6.32699       -0.07113        0.39524
H         -0.43938        1.24103        2.17036
H         -1.71950        2.21643        1.44538
H         -0.05725        2.82521        1.40545
H         -0.64813        1.71671       -2.17482
H         -0.20472        3.11646       -1.12946
H         -1.87386        2.49659       -1.12796
H         -0.55460       -3.51250       -0.14879
H         -1.73546       -2.74060       -1.23699
H         -2.03326       -2.84051        0.56897
H         -7.06106        2.95270       -0.16150
H         -8.67429        0.35684       -0.03508
H         -9.27556        2.09125       -0.38257
H         -3.38822        3.06106        0.42677
H         -5.01549        3.45163        1.02415
H         -4.72002        3.20227       -0.74899
$end

$rem
BASIS = 6-31G(d,p)
METHOD  = BLYP
JOBTYPE = OPT
$end
--------------------------------------------------------------
 ----------------------------------------------------------------
             Standard Nuclear Orientation (Angstroms)
    I     Atom           X                Y                Z
 ----------------------------------------------------------------
    1      C       3.4258763046    -1.3198101714     0.3501934609
    2      C       4.1370503450    -0.3451548318    -0.5590891455
    3      C       3.7641597300     1.0667919244    -0.1366426852
    4      C       2.2793756826     1.2855657127     0.1208299275
    5      C       1.3682536978     0.2425653427     0.2292533284
    6      C       1.8806280811    -1.2302143183     0.1679337733
    7      C      -0.1542560615     0.4664783205     0.4965298943
    8      C      -1.0965044217     0.2831266077    -0.6593575189
    9      C      -2.4113336442    -0.4365289620    -0.3219534574
   10      C      -3.5741554833     0.2565234356    -0.1945928976
   11      C       1.4873740718    -1.8771187291    -1.1817756838
   12      C       1.2847662030    -2.0722415668     1.3206582707
   13      C       1.9233344045     2.7499422400     0.2728302064
   14      C      -4.8840562979    -0.3671573341     0.1256774229
   15      C      -5.9894723730     0.3743301914     0.2353199571
   16      C      -2.4113329172    -1.9353685435    -0.1423960708
   17      O      -0.5308115176     1.8110064608     0.4694172627
   18      O      -1.2730293657     1.6682652298    -0.6290027000
   19      H       3.7147546877    -1.0676319766     1.3966878478
   20      H       3.7769416199    -2.3571029561     0.1530142494
   21      H       3.8506255201    -0.5254117947    -1.6137011777
   22      H       5.2404232277    -0.4625707964    -0.4943583994
   23      H       4.1269646658     1.7418104413    -0.9426580732
   24      H       4.2959544603     1.3367191479     0.8022484638
   25      H      -0.5150597526     0.0203876065     1.4476301967
   26      H      -0.6254267078    -0.0095764066    -1.6193105459
   27      H      -3.5787181864     1.3334796188    -0.3306075176
   28      H       1.8677653141    -1.2987090787    -2.0464648925
   29      H       0.4004945403    -1.9482082092    -1.3109543689
   30      H       1.8839600640    -2.9130356268    -1.2499572382
   31      H       1.5510506531    -1.6308610074     2.3055236388
   32      H       1.6710780125    -3.1144461066     1.2890303006
   33      H       0.1833242444    -2.1365211006     1.2662089376
   34      H       2.8172615489     3.4040104598     0.1830340813
   35      H       1.4917760597     2.9376294986     1.2784865935
   36      H       1.2267143109     3.0665499591    -0.5307342758
   37      H      -4.9726583015    -1.4375921585     0.2780452752
   38      H      -5.9628810301     1.4507489192     0.0938525623
   39      H      -6.9380982520    -0.0977580991     0.4700577529
   40      H      -1.4166335716    -2.3775080235    -0.2865815354
   41      H      -3.0891242422    -2.4051188742    -0.8861047126
   42      H      -2.7480057478    -2.1938328695     0.8837836418
 ----------------------------------------------------------------
 Molecular Point Group                 C1    NOp =  1
 Largest Abelian Subgroup              C1    NOp =  1
 Nuclear Repulsion Energy =  1393.6016913242 hartrees
 There are       68 alpha and       68 beta electrons
 Requested basis set is 6-31G(d,p)
 There are 144 shells and 390 basis functions

 Total QAlloc Memory Limit   2000 MB
 Mega-Array Size       188 MB
 MEM_STATIC part       192 MB
 A cutoff of  1.0D-11 yielded   6634 shell pairs
 There are     50358 function pairs
 
 -------------------------------------------------------
 OpenMP Integral Computing Module                       
 Release: version 1.0, May 2013, Q-Chem Inc. Pittsburgh 
 -------------------------------------------------------
 Integral Job Info:
 Integral job number is                      11
 Integral operator is                         1
 short-range coefficients                     0
 long-range coefficients              100000000
 Omega coefficients                           0
 if combine SR and LR in K                    0
 Integral screening is                        0
 Integral computing path is                   2
 max size of driver memory is            800000
 size of driver memory is                593474
 size of scratch memory is              2361544
 max col of scratch BK array               1296
 max len of scratch array in speh3          155
 max len of scratch index in speh4           18
 max int batch size is                      520
 min int batch size is                       52
 fixed nKL is                                52
 max L of basis functions is                  2
 order of int derivative is                   0
 number of shells is                        144
 number of basis is                         390
 number of cartesian basis is               390
 number of contracted shell pairs          6634
 number of primitive shell pairs          18752
 maxK2 (contraction) of shell pair           36
 max number of K2 of shell pair               1
 max number of CS2 of shell pair            682
 max number of PS2 of shell pair           2712
 mem total for path MDJ                  587100
 -------------------------------------------------------
 Smallest overlap matrix eigenvalue = 1.12E-03

 Scale SEOQF with 1.000000e-02/1.000000e-01/1.000000e-01

 Standard Electronic Orientation quadrupole field applied
 Nucleus-field energy     =     0.0000000187 hartrees
 Guess from superposition of atomic densities
 Warning:  Energy on first SCF cycle will be non-variational
 SAD guess density has 136.000000 electrons

 -----------------------------------------------------------------------
  General SCF calculation program by
  Eric Jon Sundstrom, Paul Horn, Yuezhi Mao, Dmitri Zuev, Alec White,
  David Stuck, Shaama M.S., Shane Yost, Joonho Lee, David Small,
  Daniel Levine, Susi Lehtola, Hugh Burton, Evgeny Epifanovsky
 -----------------------------------------------------------------------
 Exchange:  B88      Correlation:  LYP
 Using SG-1 standard quadrature grid
 using 12 threads for integral computing
 -------------------------------------------------------
 OpenMP Integral computing Module                
 Release: version 1.0, May 2013, Q-Chem Inc. Pittsburgh 
 -------------------------------------------------------
 -------------------------------------------------------
 OpenMP BLAS3 based DFT computing Module                
 Release: version 1.0, May 2013, Q-Chem Inc. Pittsburgh 
 -------------------------------------------------------
 A restricted SCF calculation will be
 performed using DIIS
 SCF converges when DIIS error is below 1.0e-08
 ---------------------------------------
  Cycle       Energy         DIIS error
 ---------------------------------------
    1    -776.7189120857      3.48e-02  
    2    -773.5076009943      4.98e-03  
    3    -773.0640184298      6.70e-03  
    4    -773.9885567271      1.45e-03  
    5    -774.0188492293      8.45e-04  
    6    -774.0329465643      2.57e-04  
    7    -774.0341409068      7.50e-05  
    8    -774.0342142641      4.06e-05  
    9    -774.0342474496      8.11e-06  
   10    -774.0342483732      4.36e-06  
   11    -774.0342486872      1.84e-06  
   12    -774.0342487534      3.78e-07  
   13    -774.0342487561      1.14e-07  
   14    -774.0342487563      5.20e-08  
   15    -774.0342487563      1.30e-08  
   16    -774.0342487563      3.31e-09  Convergence criterion met
 ---------------------------------------
 SCF time:   CPU 361.45s  wall 30.00s 
 SCF   energy in the final basis set =     -774.0342487563
 Total energy in the final basis set =     -774.0342487563
 
 --------------------------------------------------------------
 
                    Orbital Energies (a.u.)
 --------------------------------------------------------------
 
 Alpha MOs
 -- Occupied --
-18.834 -18.831  -9.983  -9.982  -9.940  -9.930  -9.929  -9.928
 -9.924  -9.923  -9.921  -9.917  -9.917  -9.916  -9.916  -9.914
 -9.914  -9.906  -1.105  -0.798  -0.756  -0.730  -0.699  -0.695
 -0.671  -0.654  -0.609  -0.603  -0.595  -0.591  -0.533  -0.517
 -0.496  -0.490  -0.473  -0.465  -0.457  -0.443  -0.418  -0.400
 -0.390  -0.387  -0.376  -0.373  -0.368  -0.365  -0.358  -0.345
 -0.342  -0.337  -0.336  -0.329  -0.318  -0.315  -0.307  -0.304
 -0.301  -0.291  -0.289  -0.283  -0.272  -0.269  -0.259  -0.255
 -0.246  -0.185  -0.180  -0.147
 -- Virtual --
 -0.045  -0.011   0.043   0.043   0.054   0.064   0.073   0.084
  0.090   0.096   0.101   0.104   0.107   0.113   0.120   0.131
  0.133   0.138   0.142   0.152   0.154   0.157   0.161   0.168
  0.171   0.175   0.180   0.183   0.192   0.197   0.203   0.207
  0.215   0.221   0.234   0.242   0.250   0.252   0.263   0.278
  0.309   0.323   0.341   0.361   0.368   0.421   0.450   0.456
  0.466   0.479   0.481   0.489   0.498   0.507   0.509   0.524
  0.527   0.531   0.540   0.550   0.562   0.568   0.570   0.573
  0.582   0.597   0.599   0.607   0.612   0.625   0.629   0.638
  0.641   0.651   0.661   0.681   0.686   0.707   0.711   0.715
  0.725   0.735   0.738   0.746   0.756   0.767   0.777   0.778
  0.786   0.795   0.798   0.799   0.808   0.812   0.818   0.824
  0.832   0.836   0.840   0.855   0.857   0.872   0.874   0.879
  0.884   0.887   0.894   0.904   0.909   0.923   0.935   0.944
  0.945   0.966   0.997   1.014   1.021   1.029   1.038   1.063
  1.075   1.094   1.105   1.129   1.137   1.144   1.171   1.195
  1.218   1.230   1.255   1.258   1.268   1.282   1.315   1.322
  1.327   1.349   1.362   1.373   1.387   1.403   1.425   1.446
  1.447   1.483   1.493   1.523   1.534   1.552   1.569   1.588
  1.603   1.623   1.656   1.665   1.677   1.696   1.704   1.710
  1.728   1.735   1.744   1.762   1.782   1.790   1.800   1.809
  1.814   1.817   1.824   1.831   1.846   1.851   1.856   1.882
  1.893   1.900   1.901   1.922   1.926   1.939   1.953   1.958
  1.971   1.977   1.978   1.988   1.991   1.995   1.997   2.003
  2.013   2.018   2.025   2.039   2.043   2.048   2.057   2.062
  2.080   2.086   2.092   2.101   2.119   2.126   2.131   2.145
  2.150   2.159   2.190   2.202   2.203   2.223   2.239   2.253
  2.275   2.286   2.296   2.315   2.318   2.343   2.353   2.357
  2.368   2.375   2.390   2.401   2.423   2.430   2.430   2.448
  2.458   2.466   2.473   2.487   2.511   2.526   2.538   2.544
  2.552   2.557   2.566   2.594   2.599   2.604   2.614   2.620
  2.637   2.641   2.641   2.651   2.664   2.682   2.689   2.698
  2.707   2.719   2.727   2.747   2.762   2.766   2.772   2.785
  2.793   2.797   2.804   2.827   2.844   2.856   2.870   2.880
  2.887   2.895   2.946   2.972   2.978   2.988   3.034   3.085
  3.105   3.134   3.134   3.149   3.174   3.214   3.215   3.246
  3.268   3.303   3.321   3.325   3.327   3.341   3.342   3.356
  3.371   3.379   3.392   3.411   3.429   3.469   3.496   3.605
  3.813   4.043   4.060   4.135   4.216   4.229   4.301   4.409
  4.423   4.431   4.456   4.505   4.530   4.576   4.629   4.639
  4.684   4.823
 --------------------------------------------------------------
 
          Ground-State Mulliken Net Atomic Charges

     Atom                 Charge (a.u.)
  ----------------------------------------
      1 C                    -0.132429
      2 C                    -0.160224
      3 C                    -0.195678
      4 C                     0.062097
      5 C                     0.076419
      6 C                     0.023122
      7 C                     0.121765
      8 C                     0.128593
      9 C                     0.072740
     10 C                    -0.083162
     11 C                    -0.282098
     12 C                    -0.284991
     13 C                    -0.309555
     14 C                     0.001464
     15 C                    -0.215649
     16 C                    -0.354876
     17 O                    -0.272911
     18 O                    -0.269892
     19 H                     0.070673
     20 H                     0.063584
     21 H                     0.081496
     22 H                     0.065520
     23 H                     0.085171
     24 H                     0.093275
     25 H                     0.085815
     26 H                     0.090579
     27 H                     0.076167
     28 H                     0.091943
     29 H                     0.088108
     30 H                     0.081504
     31 H                     0.089032
     32 H                     0.083095
     33 H                     0.083035
     34 H                     0.067828
     35 H                     0.108000
     36 H                     0.122620
     37 H                     0.056922
     38 H                     0.083197
     39 H                     0.076003
     40 H                     0.101465
     41 H                     0.114324
     42 H                     0.115907
  ----------------------------------------
  Sum of atomic charges =    -0.000000

 -----------------------------------------------------------------
                    Cartesian Multipole Moments
 -----------------------------------------------------------------
    Charge (ESU x 10^10)
                -0.0000
    Dipole Moment (Debye)
         X       0.9569      Y      -2.2853      Z      -0.0086
       Tot       2.4775
    Quadrupole Moments (Debye-Ang)
        XX    -106.5539     XY       3.8685     YY    -112.1002
        XZ      -0.6910     YZ      -0.0780     ZZ    -111.3670
    Octopole Moments (Debye-Ang^2)
       XXX     -15.1459    XXY       1.6886    XYY      -4.8326
       YYY       6.8948    XXZ       6.2000    XYZ       1.3953
       YYZ      -1.0466    XZZ       6.0605    YZZ       5.1179
       ZZZ      -0.9729
    Hexadecapole Moments (Debye-Ang^3)
      XXXX   -5697.3872   XXXY      16.8447   XXYY   -1195.8070
      XYYY      -9.4206   YYYY   -1558.2605   XXXZ     -37.8986
      XXYZ     -10.3196   XYYZ      -1.2199   YYYZ      -0.5848
      XXZZ   -1094.5615   XYZZ       5.4620   YYZZ    -332.9301
      XZZZ       4.8148   YZZZ       0.4314   ZZZZ    -416.3852
 -----------------------------------------------------------------
 Calculating analytic gradient of the SCF energy
 Gradient of SCF Energy
            1           2           3           4           5           6
    1  -0.0029886  -0.0131189  -0.0007460   0.0175514  -0.0198207   0.0014912
    2   0.0050316   0.0013396  -0.0028993   0.0161303  -0.0116241   0.0027142
    3  -0.0026502   0.0042379   0.0062039   0.0017340  -0.0072637  -0.0061292
            7           8           9          10          11          12
    1  -0.0492086   0.0311808   0.0021476   0.0072379  -0.0026215   0.0065651
    2   0.0317856   0.0415771  -0.0029997   0.0148515   0.0059587   0.0039951
    3  -0.0255295   0.0219664   0.0083188  -0.0033281   0.0087850  -0.0077442
           13          14          15          16          17          18
    1  -0.0016774  -0.0236304   0.0126386  -0.0016398  -0.0538539   0.0742156
    2  -0.0126295  -0.0107507  -0.0028007   0.0071370  -0.0570244  -0.0349832
    3  -0.0004443   0.0051219  -0.0019903   0.0006137  -0.1084706   0.1104144
           19          20          21          22          23          24
    1   0.0043741   0.0051236  -0.0020118   0.0042020   0.0037988  -0.0018377
    2   0.0039326  -0.0031284  -0.0016073   0.0011734  -0.0050034  -0.0017895
    3   0.0033270  -0.0026832  -0.0022081   0.0019530  -0.0076568   0.0042952
           25          26          27          28          29          30
    1  -0.0071710   0.0046058  -0.0008784   0.0002751   0.0013870   0.0008478
    2   0.0055023   0.0070347  -0.0046970   0.0029680   0.0004895  -0.0040072
    3   0.0032390  -0.0024670   0.0005101  -0.0032070  -0.0004535   0.0005887
           31          32          33          34          35          36
    1   0.0016667   0.0009211  -0.0027688   0.0011626   0.0023078  -0.0010190
    2   0.0033096  -0.0056280   0.0009364   0.0061583  -0.0036939  -0.0014856
    3   0.0045757  -0.0003457  -0.0015682  -0.0008461   0.0094075  -0.0096102
           37          38          39          40          41          42
    1  -0.0039743   0.0022717   0.0062242  -0.0001013  -0.0025957  -0.0005325
    2   0.0059677  -0.0048112  -0.0016176   0.0006964   0.0014870   0.0030038
    3  -0.0000280   0.0001504  -0.0008078  -0.0001453  -0.0060749   0.0062095
 Max gradient component =       1.104E-01
 RMS gradient           =       1.958E-02
 Gradient time:  CPU 44.01 s  wall 4.07 s
 Geometry Optimization Parameters
   NAtoms,    NIC,     NZ,  NCons,   NDum,   NFix, NCnnct, MaxDiis
       42     320       0       0       0       0       0       0


** GEOMETRY OPTIMIZATION IN DELOCALIZED INTERNAL COORDINATES **
   Searching for a Minimum

   Optimization Cycle:   1

                       Coordinates (Angstroms)
     ATOM                X               Y               Z
      1  C         3.4258763046   -1.3198101714    0.3501934609
      2  C         4.1370503450   -0.3451548318   -0.5590891455
      3  C         3.7641597300    1.0667919244   -0.1366426852
      4  C         2.2793756826    1.2855657127    0.1208299275
      5  C         1.3682536978    0.2425653427    0.2292533284
      6  C         1.8806280811   -1.2302143183    0.1679337733
      7  C        -0.1542560615    0.4664783205    0.4965298943
      8  C        -1.0965044217    0.2831266077   -0.6593575189
      9  C        -2.4113336442   -0.4365289620   -0.3219534574
     10  C        -3.5741554833    0.2565234356   -0.1945928976
     11  C         1.4873740718   -1.8771187291   -1.1817756838
     12  C         1.2847662030   -2.0722415668    1.3206582707
     13  C         1.9233344045    2.7499422400    0.2728302064
     14  C        -4.8840562979   -0.3671573341    0.1256774229
     15  C        -5.9894723730    0.3743301914    0.2353199571
     16  C        -2.4113329172   -1.9353685435   -0.1423960708
     17  O        -0.5308115176    1.8110064608    0.4694172627
     18  O        -1.2730293657    1.6682652298   -0.6290027000
     19  H         3.7147546877   -1.0676319766    1.3966878478
     20  H         3.7769416199   -2.3571029561    0.1530142494
     21  H         3.8506255201   -0.5254117947   -1.6137011777
     22  H         5.2404232277   -0.4625707964   -0.4943583994
     23  H         4.1269646658    1.7418104413   -0.9426580732
     24  H         4.2959544603    1.3367191479    0.8022484638
     25  H        -0.5150597526    0.0203876065    1.4476301967
     26  H        -0.6254267078   -0.0095764066   -1.6193105459
     27  H        -3.5787181864    1.3334796188   -0.3306075176
     28  H         1.8677653141   -1.2987090787   -2.0464648925
     29  H         0.4004945403   -1.9482082092   -1.3109543689
     30  H         1.8839600640   -2.9130356268   -1.2499572382
     31  H         1.5510506531   -1.6308610074    2.3055236388
     32  H         1.6710780125   -3.1144461066    1.2890303006
     33  H         0.1833242444   -2.1365211006    1.2662089376
     34  H         2.8172615489    3.4040104598    0.1830340813
     35  H         1.4917760597    2.9376294986    1.2784865935
     36  H         1.2267143109    3.0665499591   -0.5307342758
     37  H        -4.9726583015   -1.4375921585    0.2780452752
     38  H        -5.9628810301    1.4507489192    0.0938525623
     39  H        -6.9380982520   -0.0977580991    0.4700577529
     40  H        -1.4166335716   -2.3775080235   -0.2865815354
     41  H        -3.0891242422   -2.4051188742   -0.8861047126
     42  H        -2.7480057478   -2.1938328695    0.8837836418
   Point Group: c1    Number of degrees of freedom:   120


   Energy is   -774.034248756


 Attempting to Generate Delocalized Internal Coordinates

120 Hessian modes will be used to form the next step
  Hessian Eigenvalues:
     0.002000    0.002891    0.002978    0.004088    0.004364    0.007236
     0.007248    0.007915    0.008945    0.010409    0.011067    0.011596
     0.012289    0.013444    0.019694    0.020689    0.027742    0.030929
     0.030929    0.031142    0.031823    0.035655    0.037189    0.044596
     0.047496    0.049747    0.052163    0.052755    0.053688    0.054067
     0.054119    0.055017    0.059790    0.060438    0.068209    0.071811
     0.071903    0.072816    0.073913    0.075748    0.077898    0.078355
     0.081618    0.089540    0.096618    0.097875    0.099572    0.121057
     0.123652    0.127883    0.133249    0.158353    0.160000    0.160000
     0.160000    0.160000    0.160000    0.160000    0.160000    0.160000
     0.160000    0.160000    0.160000    0.160000    0.160000    0.160000
     0.160000    0.160000    0.186663    0.203572    0.220000    0.220000
     0.230462    0.249361    0.249935    0.249988    0.249992    0.261136
     0.265589    0.266617    0.278622    0.279181    0.288403    0.290959
     0.295047    0.298577    0.302114    0.308844    0.313951    0.321242
     0.323157    0.323591    0.323706    0.323947    0.324298    0.324429
     0.324597    0.324634    0.325206    0.325478    0.325491    0.325660
     0.326413    0.327436    0.328475    0.328574    0.331721    0.338992
     0.339219    0.340345    0.352789    0.353354    0.353623    0.354148
     0.393779    0.458556    0.461005    0.528881    0.530147    0.582073

 Minimum Search - Taking Simple RFO Step
 Searching for Lamda that Minimizes Along All modes
 Value Taken    Lamda =  -0.05562178
 Calculated Step too Large.  Step scaled by  0.777254
 Step Taken.  Stepsize is  0.300000

                             Maximum     Tolerance    Cnvgd?
         Gradient           0.096282      0.000300      NO
         Displacement       0.127492      0.001200      NO
         Energy change     *********      0.000001      NO


 New Cartesian Coordinates Obtained by Inverse Iteration

 Displacement from previous Coordinates is:  0.765364
 ----------------------------------------------------------------
             Standard Nuclear Orientation (Angstroms)
    I     Atom           X                Y                Z
 ----------------------------------------------------------------
    1      C       3.4083054524    -1.3327993847     0.3574511710
    2      C       4.1462693606    -0.3635352459    -0.5606544106
    3      C       3.7830282302     1.0654433126    -0.1459525875
    4      C       2.2986453098     1.3033035671     0.1175827066
    5      C       1.3905865668     0.2724571187     0.2302717588
    6      C       1.8649470419    -1.2190577426     0.1776351500
    7      C      -0.1259929725     0.4915194534     0.5040367512
    8      C      -1.1367860727     0.2947809978    -0.6649692029
    9      C      -2.4277982138    -0.4659532579    -0.3354229815
   10      C      -3.5952449607     0.2177546168    -0.1870427950
   11      C       1.4665339663    -1.8805146396    -1.1737564740
   12      C       1.2365971169    -2.0418303988     1.3396460499
   13      C       1.9889097962     2.7918416134     0.2670302255
   14      C      -4.9026934334    -0.3831046926     0.1284714905
   15      C      -6.0222836215     0.3598780973     0.2620761651
   16      C      -2.3640492218    -1.9812104961    -0.1951652363
   17      O      -0.5390998769     1.8646744379     0.5153400822
   18      O      -1.3399170439     1.7144276202    -0.6401839845
   19      H       3.6853606572    -1.0908214257     1.4035717343
   20      H       3.7242368711    -2.3779509844     0.1733484361
   21      H       3.8595663635    -0.5398399837    -1.6126240535
   22      H       5.2431116315    -0.5003776049    -0.5004247401
   23      H       4.1352020257     1.7593389996    -0.9348638822
   24      H       4.3238498888     1.3360048714     0.7845941636
   25      H      -0.4442384269     0.0146389726     1.4517430868
   26      H      -0.6896681600    -0.0016524789    -1.6324320773
   27      H      -3.5909567258     1.3017514154    -0.3037988012
   28      H       1.8646519309    -1.3250821237    -2.0398580541
   29      H       0.3779310639    -1.9344854186    -1.3085718608
   30      H       1.8444552192    -2.9196211419    -1.2273883028
   31      H       1.5039506289    -1.6058629990     2.3195805234
   32      H       1.6040603139    -3.0846254497     1.3168129893
   33      H       0.1372649371    -2.0897541420     1.2855365288
   34      H       2.9161680241     3.3876763104     0.1718986041
   35      H       1.5619629310     3.0238846065     1.2569737528
   36      H       1.3042935539     3.1489253681    -0.5190464172
   37      H      -4.9801693288    -1.4627584395     0.2603088626
   38      H      -6.0024067971     1.4437444443     0.1411127705
   39      H      -6.9790016002    -0.1081307657     0.4949901437
   40      H      -1.3524159734    -2.3756251864    -0.3611049478
   41      H      -3.0230979552    -2.4732362264    -0.9332212095
   42      H      -2.6757189215    -2.2977640193     0.8164730218
 ----------------------------------------------------------------
 Molecular Point Group                 C1    NOp =  1
 Largest Abelian Subgroup              C1    NOp =  1
 Nuclear Repulsion Energy =  1383.1046532702 hartrees
 There are       68 alpha and       68 beta electrons
 Applying Cartesian multipole field
    Component          Value
    ---------          -----
     (2,0,0)        1.00000E-12
     (0,2,0)        2.00000E-11
     (0,0,2)       -3.00000E-11
 Nucleus-field energy     =     0.0000000191 hartrees
 Requested basis set is 6-31G(d,p)
 There are 144 shells and 390 basis functions
 A cutoff of  1.0D-11 yielded   6626 shell pairs
 There are     50293 function pairs
 Smallest overlap matrix eigenvalue = 1.30E-03
 Guess MOs from SCF MO coefficient file

 -----------------------------------------------------------------------
  General SCF calculation program by
  Eric Jon Sundstrom, Paul Horn, Yuezhi Mao, Dmitri Zuev, Alec White,
  David Stuck, Shaama M.S., Shane Yost, Joonho Lee, David Small,
  Daniel Levine, Susi Lehtola, Hugh Burton, Evgeny Epifanovsky
 -----------------------------------------------------------------------
 Exchange:  B88      Correlation:  LYP
 Using SG-1 standard quadrature grid
 using 12 threads for integral computing
 -------------------------------------------------------
 OpenMP Integral computing Module                
 Release: version 1.0, May 2013, Q-Chem Inc. Pittsburgh 
 -------------------------------------------------------
 -------------------------------------------------------
 OpenMP BLAS3 based DFT computing Module                
 Release: version 1.0, May 2013, Q-Chem Inc. Pittsburgh 
 -------------------------------------------------------
 A restricted SCF calculation will be
 performed using DIIS
 SCF converges when DIIS error is below 1.0e-08
 ---------------------------------------
  Cycle       Energy         DIIS error
 ---------------------------------------
    1    -774.0551648376      5.38e-04  
    2    -774.0636728804      1.44e-04  
    3    -774.0633603802      1.92e-04  
    4    -774.0639709772      5.97e-05  
    5    -774.0640341092      1.85e-05  
    6    -774.0640403148      7.44e-06  
    7    -774.0640413551      2.18e-06  
    8    -774.0640414339      7.23e-07  
    9    -774.0640414429      2.53e-07  
   10    -774.0640414439      8.88e-08  
   11    -774.0640414441      2.65e-08  
   12    -774.0640414441      1.06e-08  
   13    -774.0640414441      4.92e-09  Convergence criterion met
 ---------------------------------------
 SCF time:   CPU 296.96s  wall 25.00s 
 SCF   energy in the final basis set =     -774.0640414441
 Total energy in the final basis set =     -774.0640414441
 
 --------------------------------------------------------------
 
                    Orbital Energies (a.u.)
 --------------------------------------------------------------
 
 Alpha MOs
 -- Occupied --
-18.836 -18.834  -9.986  -9.985  -9.943  -9.934  -9.930  -9.929
 -9.926  -9.924  -9.922  -9.917  -9.917  -9.917  -9.917  -9.917
 -9.916  -9.907  -1.052  -0.797  -0.754  -0.726  -0.698  -0.688
 -0.670  -0.646  -0.610  -0.605  -0.596  -0.591  -0.538  -0.517
 -0.497  -0.490  -0.464  -0.455  -0.447  -0.436  -0.416  -0.399
 -0.389  -0.386  -0.374  -0.372  -0.366  -0.365  -0.356  -0.347
 -0.342  -0.337  -0.336  -0.329  -0.319  -0.316  -0.305  -0.303
 -0.301  -0.291  -0.286  -0.282  -0.273  -0.272  -0.260  -0.258
 -0.247  -0.187  -0.179  -0.158
 -- Virtual --
 -0.048  -0.016   0.006   0.041   0.054   0.063   0.073   0.083
  0.091   0.097   0.101   0.104   0.108   0.112   0.118   0.129
  0.132   0.135   0.139   0.151   0.155   0.155   0.161   0.165
  0.168   0.175   0.177   0.181   0.185   0.196   0.197   0.206
  0.211   0.216   0.230   0.240   0.245   0.249   0.259   0.278
  0.300   0.320   0.335   0.358   0.367   0.423   0.446   0.454
  0.464   0.466   0.480   0.485   0.498   0.504   0.510   0.519
  0.523   0.530   0.537   0.548   0.557   0.565   0.569   0.573
  0.581   0.596   0.599   0.601   0.610   0.623   0.624   0.632
  0.642   0.648   0.662   0.678   0.683   0.706   0.709   0.710
  0.724   0.735   0.743   0.746   0.759   0.768   0.776   0.778
  0.787   0.796   0.798   0.801   0.810   0.813   0.818   0.823
  0.832   0.838   0.842   0.854   0.859   0.869   0.876   0.879
  0.886   0.888   0.895   0.906   0.910   0.926   0.933   0.945
  0.949   0.969   0.998   1.009   1.013   1.032   1.038   1.059
  1.072   1.086   1.099   1.117   1.126   1.143   1.169   1.192
  1.209   1.227   1.248   1.259   1.263   1.281   1.311   1.317
  1.324   1.342   1.363   1.377   1.391   1.398   1.419   1.447
  1.448   1.477   1.490   1.518   1.527   1.548   1.562   1.582
  1.601   1.611   1.640   1.661   1.672   1.675   1.689   1.701
  1.711   1.724   1.734   1.750   1.764   1.777   1.792   1.803
  1.806   1.812   1.816   1.826   1.830   1.841   1.844   1.860
  1.875   1.884   1.888   1.902   1.905   1.927   1.929   1.942
  1.963   1.970   1.981   1.992   1.994   1.995   1.999   2.003
  2.013   2.022   2.025   2.033   2.040   2.048   2.052   2.060
  2.075   2.085   2.088   2.102   2.118   2.122   2.127   2.135
  2.145   2.147   2.178   2.184   2.204   2.206   2.220   2.231
  2.252   2.271   2.280   2.291   2.316   2.325   2.341   2.351
  2.354   2.359   2.374   2.379   2.399   2.422   2.432   2.433
  2.446   2.460   2.466   2.480   2.512   2.525   2.532   2.536
  2.543   2.550   2.556   2.572   2.592   2.603   2.607   2.621
  2.630   2.635   2.642   2.652   2.658   2.674   2.684   2.696
  2.706   2.712   2.720   2.746   2.757   2.765   2.771   2.787
  2.790   2.795   2.803   2.811   2.825   2.846   2.853   2.877
  2.884   2.901   2.947   2.975   2.986   2.993   3.038   3.088
  3.110   3.132   3.139   3.157   3.181   3.198   3.221   3.252
  3.269   3.300   3.319   3.334   3.338   3.347   3.351   3.360
  3.375   3.385   3.395   3.414   3.432   3.471   3.490   3.593
  3.757   4.033   4.052   4.121   4.203   4.221   4.289   4.389
  4.410   4.418   4.445   4.491   4.524   4.566   4.618   4.623
  4.678   4.766
 --------------------------------------------------------------
 
          Ground-State Mulliken Net Atomic Charges

     Atom                 Charge (a.u.)
  ----------------------------------------
      1 C                    -0.134875
      2 C                    -0.162749
      3 C                    -0.198139
      4 C                     0.065494
      5 C                     0.079949
      6 C                     0.022177
      7 C                     0.121743
      8 C                     0.128650
      9 C                     0.076090
     10 C                    -0.081077
     11 C                    -0.282965
     12 C                    -0.290076
     13 C                    -0.315887
     14 C                    -0.001380
     15 C                    -0.218019
     16 C                    -0.358507
     17 O                    -0.284572
     18 O                    -0.282834
     19 H                     0.072448
     20 H                     0.064866
     21 H                     0.083069
     22 H                     0.068016
     23 H                     0.086353
     24 H                     0.093953
     25 H                     0.090155
     26 H                     0.093906
     27 H                     0.079765
     28 H                     0.093053
     29 H                     0.087558
     30 H                     0.083318
     31 H                     0.090913
     32 H                     0.084009
     33 H                     0.086594
     34 H                     0.071082
     35 H                     0.109588
     36 H                     0.124125
     37 H                     0.054968
     38 H                     0.084374
     39 H                     0.078560
     40 H                     0.105172
     41 H                     0.114265
     42 H                     0.116869
  ----------------------------------------
  Sum of atomic charges =    -0.000000

 -----------------------------------------------------------------
                    Cartesian Multipole Moments
 -----------------------------------------------------------------
    Charge (ESU x 10^10)
                -0.0000
    Dipole Moment (Debye)
         X       1.1385      Y      -2.4778      Z      -0.0271
       Tot       2.7270
    Quadrupole Moments (Debye-Ang)
        XX    -106.4881     XY       4.1567     YY    -111.8105
        XZ      -0.5712     YZ      -0.0788     ZZ    -111.3881
    Octopole Moments (Debye-Ang^2)
       XXX     -12.3006    XXY       2.0443    XYY      -3.0318
       YYY       4.4076    XXZ       5.8043    XYZ       1.0984
       YYZ      -0.8521    XZZ       7.1034    YZZ       4.1648
       ZZZ      -1.5307
    Hexadecapole Moments (Debye-Ang^3)
      XXXX   -5718.3986   XXXY      -1.4093   XXYY   -1204.4813
      XYYY     -17.2377   YYYY   -1581.3611   XXXZ     -43.3920
      XXYZ     -10.0108   XYYZ      -1.3779   YYYZ      -4.2020
      XXZZ   -1103.4966   XYZZ       0.0096   YYZZ    -337.9435
      XZZZ       5.4735   YZZZ      -3.4739   ZZZZ    -420.6113
 -----------------------------------------------------------------
 Calculating analytic gradient of the SCF energy
 Gradient of SCF Energy
            1           2           3           4           5           6
    1  -0.0014080  -0.0057758  -0.0002336   0.0101571  -0.0069616   0.0022895
    2   0.0005595  -0.0002351   0.0014302   0.0076855  -0.0069901   0.0018322
    3  -0.0000186   0.0003858   0.0035247   0.0015726  -0.0039928  -0.0040011
            7           8           9          10          11          12
    1  -0.0229389   0.0126454  -0.0004889   0.0057734  -0.0002229   0.0035192
    2   0.0151424   0.0195525  -0.0018087   0.0078931   0.0025195   0.0012945
    3  -0.0024265   0.0008048   0.0035307  -0.0025330   0.0041867  -0.0030489
           13          14          15          16          17          18
    1  -0.0024928  -0.0084221   0.0022612  -0.0012591  -0.0247099   0.0325374
    2  -0.0044595  -0.0082586   0.0021244   0.0004940  -0.0265428  -0.0149642
    3   0.0002706   0.0026947  -0.0006420   0.0019106  -0.0496304   0.0498483
           19          20          21          22          23          24
    1   0.0019531   0.0019653  -0.0009526   0.0020907   0.0016639  -0.0019219
    2   0.0019728  -0.0013609  -0.0006646   0.0008550  -0.0025411  -0.0013576
    3   0.0010972  -0.0008919  -0.0007782   0.0004832  -0.0038244   0.0022369
           25          26          27          28          29          30
    1  -0.0025419   0.0012235  -0.0017535  -0.0003101  -0.0000732   0.0000098
    2   0.0019651   0.0036174  -0.0017719   0.0010746   0.0000161  -0.0017963
    3   0.0032823  -0.0019452   0.0000225  -0.0014174  -0.0001323  -0.0000876
           31          32          33          34          35          36
    1   0.0003798  -0.0003892  -0.0018275   0.0006058   0.0026969   0.0013590
    2   0.0012113  -0.0021935   0.0008565   0.0028338  -0.0011511  -0.0002963
    3   0.0015143  -0.0000374  -0.0003952  -0.0007217   0.0038631  -0.0040639
           37          38          39          40          41          42
    1  -0.0019401   0.0010286   0.0020465   0.0003508  -0.0002124   0.0002790
    2   0.0029711  -0.0017106  -0.0012572  -0.0004479   0.0007309   0.0011753
    3   0.0000843   0.0000025  -0.0002762  -0.0000891  -0.0024975   0.0021358
 Max gradient component =       4.985E-02
 RMS gradient           =       8.804E-03
 Gradient time:  CPU 43.32 s  wall 3.96 s
 Geometry Optimization Parameters
   NAtoms,    NIC,     NZ,  NCons,   NDum,   NFix, NCnnct, MaxDiis
       42     320       0       0       0       0       0       0

 Cartesian Hessian Update
 Hessian Updated using BFGS Update


** GEOMETRY OPTIMIZATION IN DELOCALIZED INTERNAL COORDINATES **
   Searching for a Minimum

   Optimization Cycle:   2

                       Coordinates (Angstroms)
     ATOM                X               Y               Z
      1  C         3.4083054524   -1.3327993847    0.3574511710
      2  C         4.1462693606   -0.3635352459   -0.5606544106
      3  C         3.7830282302    1.0654433126   -0.1459525875
      4  C         2.2986453098    1.3033035671    0.1175827066
      5  C         1.3905865668    0.2724571187    0.2302717588
      6  C         1.8649470419   -1.2190577426    0.1776351500
      7  C        -0.1259929725    0.4915194534    0.5040367512
      8  C        -1.1367860727    0.2947809978   -0.6649692029
      9  C        -2.4277982138   -0.4659532579   -0.3354229815
     10  C        -3.5952449607    0.2177546168   -0.1870427950
     11  C         1.4665339663   -1.8805146396   -1.1737564740
     12  C         1.2365971169   -2.0418303988    1.3396460499
     13  C         1.9889097962    2.7918416134    0.2670302255
     14  C        -4.9026934334   -0.3831046926    0.1284714905
     15  C        -6.0222836215    0.3598780973    0.2620761651
     16  C        -2.3640492218   -1.9812104961   -0.1951652363
     17  O        -0.5390998769    1.8646744379    0.5153400822
     18  O        -1.3399170439    1.7144276202   -0.6401839845
     19  H         3.6853606572   -1.0908214257    1.4035717343
     20  H         3.7242368711   -2.3779509844    0.1733484361
     21  H         3.8595663635   -0.5398399837   -1.6126240535
     22  H         5.2431116315   -0.5003776049   -0.5004247401
     23  H         4.1352020257    1.7593389996   -0.9348638822
     24  H         4.3238498888    1.3360048714    0.7845941636
     25  H        -0.4442384269    0.0146389726    1.4517430868
     26  H        -0.6896681600   -0.0016524789   -1.6324320773
     27  H        -3.5909567258    1.3017514154   -0.3037988012
     28  H         1.8646519309   -1.3250821237   -2.0398580541
     29  H         0.3779310639   -1.9344854186   -1.3085718608
     30  H         1.8444552192   -2.9196211419   -1.2273883028
     31  H         1.5039506289   -1.6058629990    2.3195805234
     32  H         1.6040603139   -3.0846254497    1.3168129893
     33  H         0.1372649371   -2.0897541420    1.2855365288
     34  H         2.9161680241    3.3876763104    0.1718986041
     35  H         1.5619629310    3.0238846065    1.2569737528
     36  H         1.3042935539    3.1489253681   -0.5190464172
     37  H        -4.9801693288   -1.4627584395    0.2603088626
     38  H        -6.0024067971    1.4437444443    0.1411127705
     39  H        -6.9790016002   -0.1081307657    0.4949901437
     40  H        -1.3524159734   -2.3756251864   -0.3611049478
     41  H        -3.0230979552   -2.4732362264   -0.9332212095
     42  H        -2.6757189215   -2.2977640193    0.8164730218
   Point Group: c1    Number of degrees of freedom:   120


   Energy is   -774.064041444

 Hessian Updated using BFGS Update

108 Hessian modes will be used to form the next step
  Hessian Eigenvalues:
     0.002000    0.002891    0.002977    0.004088    0.004357    0.007238
     0.007248    0.007914    0.008947    0.010411    0.011067    0.011596
     0.012264    0.013441    0.019696    0.020689    0.027743    0.030929
     0.030929    0.031142    0.031818    0.035945    0.037185    0.044700
     0.047500    0.049685    0.052127    0.052754    0.053680    0.054061
     0.054118    0.055007    0.060313    0.060870    0.068049    0.071714
     0.071812    0.072816    0.073898    0.075747    0.077979    0.078373
     0.081771    0.089536    0.096695    0.097841    0.100789    0.120924
     0.123011    0.125681    0.133605    0.157819    0.159142    0.160000
     0.160000    0.161318    0.186621    0.203650    0.219074    0.220372
     0.230447    0.246102    0.249808    0.249991    0.256684    0.261452
     0.264441    0.265615    0.278682    0.279365    0.287826    0.290888
     0.298109    0.300950    0.305757    0.310237    0.317900    0.321413
     0.323136    0.323530    0.323652    0.323980    0.324086    0.324437
     0.324514    0.324615    0.325002    0.325484    0.325577    0.326103
     0.327380    0.328165    0.328546    0.330081    0.331535    0.336547
     0.339063    0.340453    0.352844    0.353345    0.353888    0.353990
     0.393574    0.408527    0.462286    0.497251    0.530606    0.586123

 Minimum Search - Taking Simple RFO Step
 Searching for Lamda that Minimizes Along All modes
 Value Taken    Lamda =  -0.01667135
 Calculated Step too Large.  Step scaled by  0.815752
 Step Taken.  Stepsize is  0.300000

                             Maximum     Tolerance    Cnvgd?
         Gradient           0.043260      0.000300      NO
         Displacement       0.111804      0.001200      NO
         Energy change     -0.029793      0.000001      NO


 New Cartesian Coordinates Obtained by Inverse Iteration

 Displacement from previous Coordinates is:  1.500917
 ----------------------------------------------------------------
             Standard Nuclear Orientation (Angstroms)
    I     Atom           X                Y                Z
 ----------------------------------------------------------------
    1      C       3.4632965312    -1.3041483339     0.3956137454
    2      C       4.1909975999    -0.3161240617    -0.5242577596
    3      C       3.7552654375     1.1077870442    -0.1479941391
    4      C       2.2541910236     1.2796039205     0.0919094278
    5      C       1.4014644005     0.2218019551     0.2130199708
    6      C       1.9183780685    -1.2601264870     0.1907408202
    7      C      -0.1018395404     0.4275103255     0.4839555047
    8      C      -1.1659176003     0.2540687289    -0.6715759568
    9      C      -2.4727592372    -0.4689925248    -0.3489883372
   10      C      -3.6034034793     0.2595351232    -0.1482797206
   11      C       1.5845638623    -1.9586004299    -1.1656035282
   12      C       1.3042179483    -2.0993531810     1.3552025745
   13      C       1.8626264252     2.7568536577     0.2138310743
   14      C      -4.9277076220    -0.2795751647     0.1489670720
   15      C      -6.0191782510     0.4987020184     0.3433037903
   16      C      -2.4603789496    -1.9925296905    -0.2898843931
   17      O      -0.5010077168     1.8317388870     0.5411203558
   18      O      -1.3336287118     1.7045524722    -0.6622875713
   19      H       3.6995130610    -1.0472655459     1.4448091088
   20      H       3.8145650818    -2.3384206581     0.2351258573
   21      H       3.9350606317    -0.5199541121    -1.5773677743
   22      H       5.2870215450    -0.4142291515    -0.4405738461
   23      H       4.0739750868     1.8197662354    -0.9310675252
   24      H       4.2780043830     1.4260114495     0.7767618198
   25      H      -0.4035508798    -0.0638236225     1.4237630062
   26      H      -0.7451947466    -0.0612615458    -1.6424504255
   27      H      -3.5304058625     1.3484178709    -0.2079275146
   28      H       1.9914164737    -1.4017417831    -2.0235835178
   29      H       0.5043585258    -2.0590761562    -1.3340650894
   30      H       2.0083762343    -2.9779345086    -1.1892436734
   31      H       1.5300568920    -1.6427594506     2.3328274384
   32      H       1.7338677976    -3.1150483198     1.3499750060
   33      H       0.2140511056    -2.2143661960     1.2840394278
   34      H       2.7627527732     3.3888141126     0.1333065288
   35      H       1.3868943371     2.9849476353     1.1784643089
   36      H       1.1671562033     3.0701923600    -0.5773914781
   37      H      -5.0418185702    -1.3662564498     0.2186121692
   38      H      -5.9587971038     1.5887901911     0.2853183592
   39      H      -6.9967281783     0.0656268870     0.5652195490
   40      H      -1.4669991800    -2.4072915766    -0.5028379936
   41      H      -3.1550271987    -2.4299388536    -1.0264416239
   42      H      -2.7593790250    -2.3594514953     0.7059391024
 ----------------------------------------------------------------
 Molecular Point Group                 C1    NOp =  1
 Largest Abelian Subgroup              C1    NOp =  1
 Nuclear Repulsion Energy =  1377.4019658923 hartrees
 There are       68 alpha and       68 beta electrons
 Applying Cartesian multipole field
    Component          Value
    ---------          -----
     (2,0,0)        1.00000E-12
     (0,2,0)        2.00000E-11
     (0,0,2)       -3.00000E-11
 Nucleus-field energy     =     0.0000000193 hartrees
 Requested basis set is 6-31G(d,p)
 There are 144 shells and 390 basis functions
 A cutoff of  1.0D-11 yielded   6565 shell pairs
 There are     49883 function pairs
 Smallest overlap matrix eigenvalue = 1.39E-03
 Guess MOs from SCF MO coefficient file

 -----------------------------------------------------------------------
  General SCF calculation program by
  Eric Jon Sundstrom, Paul Horn, Yuezhi Mao, Dmitri Zuev, Alec White,
  David Stuck, Shaama M.S., Shane Yost, Joonho Lee, David Small,
  Daniel Levine, Susi Lehtola, Hugh Burton, Evgeny Epifanovsky
 -----------------------------------------------------------------------
 Exchange:  B88      Correlation:  LYP
 Using SG-1 standard quadrature grid
 using 12 threads for integral computing
 -------------------------------------------------------
 OpenMP Integral computing Module                
 Release: version 1.0, May 2013, Q-Chem Inc. Pittsburgh 
 -------------------------------------------------------
 -------------------------------------------------------
 OpenMP BLAS3 based DFT computing Module                
 Release: version 1.0, May 2013, Q-Chem Inc. Pittsburgh 
 -------------------------------------------------------
 A restricted SCF calculation will be
 performed using DIIS
 SCF converges when DIIS error is below 1.0e-08
 ---------------------------------------
  Cycle       Energy         DIIS error
 ---------------------------------------
    1    -774.0559795853      6.47e-04  
    2    -774.0713012959      1.08e-04  
    3    -774.0704270741      2.33e-04  
    4    -774.0714352461      6.34e-05  
    5    -774.0715166299      1.44e-05  
    6    -774.0715202387      6.31e-06  
    7    -774.0715209890      1.96e-06  
    8    -774.0715210587      6.90e-07  
    9    -774.0715210673      1.59e-07  
   10    -774.0715210677      6.90e-08  
   11    -774.0715210678      2.45e-08  
   12    -774.0715210678      8.45e-09  Convergence criterion met
 ---------------------------------------
 SCF time:   CPU 268.05s  wall 22.00s 
 SCF   energy in the final basis set =     -774.0715210678
 Total energy in the final basis set =     -774.0715210678
 
 --------------------------------------------------------------
 
                    Orbital Energies (a.u.)
 --------------------------------------------------------------
 
 Alpha MOs
 -- Occupied --
-18.838 -18.835  -9.988  -9.985  -9.944  -9.935  -9.930  -9.928
 -9.926  -9.923  -9.921  -9.918  -9.918  -9.918  -9.917  -9.917
 -9.917  -9.903  -1.021  -0.798  -0.753  -0.726  -0.697  -0.686
 -0.670  -0.642  -0.610  -0.606  -0.597  -0.590  -0.541  -0.518
 -0.498  -0.491  -0.460  -0.448  -0.440  -0.433  -0.414  -0.399
 -0.388  -0.386  -0.374  -0.371  -0.366  -0.363  -0.354  -0.349
 -0.341  -0.338  -0.334  -0.329  -0.319  -0.316  -0.306  -0.302
 -0.302  -0.292  -0.284  -0.282  -0.272  -0.269  -0.261  -0.259
 -0.247  -0.189  -0.179  -0.164
 -- Virtual --
 -0.051  -0.031  -0.001   0.033   0.055   0.060   0.073   0.080
  0.092   0.097   0.101   0.104   0.109   0.111   0.118   0.125
  0.132   0.137   0.138   0.150   0.154   0.156   0.161   0.165
  0.168   0.174   0.176   0.179   0.185   0.196   0.198   0.204
  0.211   0.216   0.230   0.240   0.243   0.246   0.260   0.271
  0.293   0.319   0.336   0.357   0.369   0.427   0.445   0.452
  0.459   0.464   0.476   0.482   0.495   0.503   0.510   0.519
  0.523   0.529   0.535   0.541   0.558   0.567   0.569   0.574
  0.581   0.594   0.597   0.600   0.610   0.618   0.623   0.639
  0.639   0.649   0.664   0.678   0.680   0.705   0.706   0.710
  0.726   0.735   0.747   0.750   0.760   0.768   0.775   0.779
  0.790   0.797   0.799   0.800   0.811   0.815   0.818   0.823
  0.831   0.837   0.842   0.854   0.864   0.868   0.873   0.879
  0.883   0.889   0.897   0.906   0.912   0.924   0.929   0.934
  0.950   0.962   0.973   1.007   1.012   1.025   1.031   1.064
  1.077   1.087   1.098   1.119   1.132   1.144   1.170   1.197
  1.214   1.231   1.250   1.257   1.264   1.281   1.308   1.315
  1.324   1.338   1.365   1.381   1.392   1.394   1.425   1.445
  1.449   1.474   1.494   1.515   1.533   1.542   1.564   1.580
  1.600   1.613   1.636   1.658   1.664   1.671   1.690   1.700
  1.708   1.719   1.729   1.753   1.758   1.770   1.783   1.799
  1.802   1.808   1.813   1.820   1.824   1.830   1.841   1.848
  1.869   1.876   1.883   1.894   1.900   1.923   1.929   1.936
  1.957   1.970   1.978   1.994   1.998   1.999   2.000   2.012
  2.016   2.021   2.026   2.031   2.040   2.047   2.052   2.060
  2.072   2.083   2.085   2.103   2.112   2.118   2.120   2.132
  2.142   2.157   2.162   2.175   2.182   2.203   2.213   2.226
  2.246   2.267   2.273   2.286   2.304   2.313   2.335   2.343
  2.348   2.353   2.367   2.379   2.397   2.419   2.428   2.438
  2.446   2.458   2.462   2.479   2.508   2.519   2.527   2.531
  2.542   2.551   2.554   2.569   2.589   2.599   2.609   2.624
  2.628   2.634   2.643   2.650   2.662   2.677   2.685   2.697
  2.704   2.710   2.717   2.741   2.754   2.766   2.774   2.779
  2.790   2.798   2.803   2.806   2.816   2.846   2.853   2.873
  2.887   2.905   2.952   2.979   2.996   2.999   3.048   3.097
  3.109   3.131   3.142   3.159   3.184   3.190   3.226   3.256
  3.276   3.300   3.322   3.337   3.343   3.351   3.360   3.374
  3.377   3.385   3.403   3.414   3.428   3.472   3.485   3.592
  3.734   4.040   4.053   4.117   4.197   4.218   4.285   4.378
  4.394   4.418   4.448   4.482   4.521   4.567   4.616   4.619
  4.682   4.732
 --------------------------------------------------------------
 
          Ground-State Mulliken Net Atomic Charges

     Atom                 Charge (a.u.)
  ----------------------------------------
      1 C                    -0.135802
      2 C                    -0.164283
      3 C                    -0.199340
      4 C                     0.068007
      5 C                     0.084218
      6 C                     0.021006
      7 C                     0.115678
      8 C                     0.125244
      9 C                     0.080275
     10 C                    -0.078327
     11 C                    -0.284951
     12 C                    -0.292465
     13 C                    -0.306818
     14 C                    -0.001859
     15 C                    -0.219505
     16 C                    -0.363673
     17 O                    -0.290005
     18 O                    -0.287273
     19 H                     0.073238
     20 H                     0.065200
     21 H                     0.083992
     22 H                     0.069777
     23 H                     0.087173
     24 H                     0.094177
     25 H                     0.091369
     26 H                     0.093642
     27 H                     0.082660
     28 H                     0.094637
     29 H                     0.086710
     30 H                     0.085215
     31 H                     0.092622
     32 H                     0.085830
     33 H                     0.086763
     34 H                     0.064238
     35 H                     0.111490
     36 H                     0.123633
     37 H                     0.053417
     38 H                     0.084787
     39 H                     0.079921
     40 H                     0.104918
     41 H                     0.116305
     42 H                     0.118156
  ----------------------------------------
  Sum of atomic charges =    -0.000000

 -----------------------------------------------------------------
                    Cartesian Multipole Moments
 -----------------------------------------------------------------
    Charge (ESU x 10^10)
                -0.0000
    Dipole Moment (Debye)
         X       1.0656      Y      -2.6152      Z      -0.0372
       Tot       2.8242
    Quadrupole Moments (Debye-Ang)
        XX    -106.1647     XY       3.9097     YY    -111.6665
        XZ      -0.4871     YZ       0.1697     ZZ    -111.4530
    Octopole Moments (Debye-Ang^2)
       XXX     -13.4350    XXY       1.1387    XYY      -3.9699
       YYY       4.4803    XXZ       5.8455    XYZ      -0.3550
       YYZ      -0.4943    XZZ       6.9658    YZZ       3.5858
       ZZZ      -2.1989
    Hexadecapole Moments (Debye-Ang^3)
      XXXX   -5764.5379   XXXY      36.7511   XXYY   -1216.3074
      XYYY      17.9391   YYYY   -1597.0986   XXXZ     -44.5395
      XXYZ      -2.5873   XYYZ      -0.1284   YYYZ      -3.4996
      XXZZ   -1113.7281   XYZZ      13.7751   YYZZ    -341.5340
      XZZZ      12.4085   YZZZ      -3.4562   ZZZZ    -424.4631
 -----------------------------------------------------------------
 Calculating analytic gradient of the SCF energy
 Gradient of SCF Energy
            1           2           3           4           5           6
    1  -0.0011619  -0.0004103   0.0007300  -0.0002184   0.0015284   0.0010913
    2  -0.0008597  -0.0010219   0.0015909  -0.0015281   0.0017558   0.0004054
    3   0.0006600  -0.0010946   0.0011265   0.0018061  -0.0018460  -0.0017958
            7           8           9          10          11          12
    1  -0.0067132   0.0036928  -0.0020695   0.0030512   0.0007073   0.0006420
    2   0.0056945   0.0055552  -0.0005952   0.0005393  -0.0000053  -0.0006253
    3   0.0017361  -0.0034682   0.0010234  -0.0017848   0.0008422   0.0002410
           13          14          15          16          17          18
    1  -0.0056022  -0.0006930  -0.0001166  -0.0011635  -0.0034660   0.0122966
    2  -0.0034294  -0.0021983   0.0015326  -0.0012442  -0.0045175  -0.0046985
    3   0.0002667   0.0004105   0.0000009   0.0015520  -0.0222980   0.0221176
           19          20          21          22          23          24
    1   0.0003152   0.0003097  -0.0006508   0.0003913   0.0003551  -0.0007850
    2   0.0005813   0.0000248   0.0000427   0.0005916  -0.0010826  -0.0010218
    3  -0.0001031   0.0000663   0.0003021  -0.0003659  -0.0007654   0.0007371
           25          26          27          28          29          30
    1  -0.0000883  -0.0004936  -0.0009730  -0.0003205   0.0018357   0.0000735
    2   0.0023169   0.0028627  -0.0001086   0.0001548  -0.0005380  -0.0003653
    3   0.0008680  -0.0005247   0.0000507  -0.0004227  -0.0004458  -0.0002914
           31          32          33          34          35          36
    1   0.0001077  -0.0004985   0.0012776  -0.0010657  -0.0003522  -0.0004087
    2   0.0000557  -0.0003784   0.0001357   0.0009077  -0.0008955  -0.0004567
    3   0.0000918  -0.0001270   0.0008431  -0.0001238   0.0015699  -0.0007924
           37          38          39          40          41          42
    1  -0.0002809   0.0002625   0.0002649  -0.0016590   0.0001468   0.0001112
    2   0.0005190  -0.0002479  -0.0005342   0.0002379   0.0003933   0.0004548
    3   0.0000533  -0.0000399  -0.0000450   0.0002888  -0.0004622   0.0001428
 Max gradient component =       2.230E-02
 RMS gradient           =       3.420E-03
 Gradient time:  CPU 42.74 s  wall 3.90 s
 Geometry Optimization Parameters
   NAtoms,    NIC,     NZ,  NCons,   NDum,   NFix, NCnnct, MaxDiis
       42     320       0       0       0       0       0       0

 Cartesian Hessian Update
 Hessian Updated using BFGS Update


** GEOMETRY OPTIMIZATION IN DELOCALIZED INTERNAL COORDINATES **
   Searching for a Minimum

   Optimization Cycle:   3

                       Coordinates (Angstroms)
     ATOM                X               Y               Z
      1  C         3.4632965312   -1.3041483339    0.3956137454
      2  C         4.1909975999   -0.3161240617   -0.5242577596
      3  C         3.7552654375    1.1077870442   -0.1479941391
      4  C         2.2541910236    1.2796039205    0.0919094278
      5  C         1.4014644005    0.2218019551    0.2130199708
      6  C         1.9183780685   -1.2601264870    0.1907408202
      7  C        -0.1018395404    0.4275103255    0.4839555047
      8  C        -1.1659176003    0.2540687289   -0.6715759568
      9  C        -2.4727592372   -0.4689925248   -0.3489883372
     10  C        -3.6034034793    0.2595351232   -0.1482797206
     11  C         1.5845638623   -1.9586004299   -1.1656035282
     12  C         1.3042179483   -2.0993531810    1.3552025745
     13  C         1.8626264252    2.7568536577    0.2138310743
     14  C        -4.9277076220   -0.2795751647    0.1489670720
     15  C        -6.0191782510    0.4987020184    0.3433037903
     16  C        -2.4603789496   -1.9925296905   -0.2898843931
     17  O        -0.5010077168    1.8317388870    0.5411203558
     18  O        -1.3336287118    1.7045524722   -0.6622875713
     19  H         3.6995130610   -1.0472655459    1.4448091088
     20  H         3.8145650818   -2.3384206581    0.2351258573
     21  H         3.9350606317   -0.5199541121   -1.5773677743
     22  H         5.2870215450   -0.4142291515   -0.4405738461
     23  H         4.0739750868    1.8197662354   -0.9310675252
     24  H         4.2780043830    1.4260114495    0.7767618198
     25  H        -0.4035508798   -0.0638236225    1.4237630062
     26  H        -0.7451947466   -0.0612615458   -1.6424504255
     27  H        -3.5304058625    1.3484178709   -0.2079275146
     28  H         1.9914164737   -1.4017417831   -2.0235835178
     29  H         0.5043585258   -2.0590761562   -1.3340650894
     30  H         2.0083762343   -2.9779345086   -1.1892436734
     31  H         1.5300568920   -1.6427594506    2.3328274384
     32  H         1.7338677976   -3.1150483198    1.3499750060
     33  H         0.2140511056   -2.2143661960    1.2840394278
     34  H         2.7627527732    3.3888141126    0.1333065288
     35  H         1.3868943371    2.9849476353    1.1784643089
     36  H         1.1671562033    3.0701923600   -0.5773914781
     37  H        -5.0418185702   -1.3662564498    0.2186121692
     38  H        -5.9587971038    1.5887901911    0.2853183592
     39  H        -6.9967281783    0.0656268870    0.5652195490
     40  H        -1.4669991800   -2.4072915766   -0.5028379936
     41  H        -3.1550271987   -2.4299388536   -1.0264416239
     42  H        -2.7593790250   -2.3594514953    0.7059391024
   Point Group: c1    Number of degrees of freedom:   120


   Energy is   -774.071521068

 Hessian Updated using BFGS Update

109 Hessian modes will be used to form the next step
  Hessian Eigenvalues:
     0.002054    0.002889    0.002977    0.004093    0.004377    0.007233
     0.007317    0.007916    0.008933    0.010394    0.011067    0.011599
     0.012476    0.013464    0.019696    0.020689    0.027678    0.030928
     0.030929    0.031143    0.031802    0.036089    0.037286    0.044657
     0.047399    0.049957    0.052618    0.052767    0.053481    0.053957
     0.054108    0.054901    0.058233    0.061359    0.069067    0.071805
     0.072812    0.072904    0.073926    0.075914    0.077599    0.078372
     0.081802    0.089463    0.095840    0.097679    0.100433    0.115975
     0.121471    0.127204    0.133820    0.151919    0.158834    0.160000
     0.160000    0.160336    0.161341    0.186624    0.203876    0.209131
     0.220566    0.228756    0.233943    0.249806    0.250687    0.253125
     0.261142    0.265612    0.276073    0.278971    0.280955    0.290581
     0.293781    0.298444    0.303472    0.305954    0.310920    0.318219
     0.321443    0.323255    0.323624    0.323759    0.324055    0.324418
     0.324497    0.324597    0.324926    0.325482    0.325521    0.326051
     0.326633    0.327486    0.328074    0.328536    0.330168    0.332058
     0.338780    0.340189    0.346606    0.352915    0.353481    0.353932
     0.355807    0.393868    0.422123    0.482733    0.528812    0.581601
     0.598445

 Minimum Search - Taking Simple RFO Step
 Searching for Lamda that Minimizes Along All modes
 Value Taken    Lamda =  -0.01182410
 Calculated Step too Large.  Step scaled by  0.822543
 Step Taken.  Stepsize is  0.300000

                             Maximum     Tolerance    Cnvgd?
         Gradient           0.033058      0.000300      NO
         Displacement       0.103366      0.001200      NO
         Energy change     -0.007480      0.000001      NO


 New Cartesian Coordinates Obtained by Inverse Iteration

 Displacement from previous Coordinates is:  1.934489
 ----------------------------------------------------------------
             Standard Nuclear Orientation (Angstroms)
    I     Atom           X                Y                Z
 ----------------------------------------------------------------
    1      C       3.3701421174    -1.3331986081     0.4177121257
    2      C       4.1616334018    -0.3968875555    -0.5082701206
    3      C       3.7972666758     1.0544036240    -0.1583081119
    4      C       2.3056428676     1.3184572619     0.0835510173
    5      C       1.4012806108     0.3078233340     0.2296061863
    6      C       1.8299934749    -1.2000785471     0.2120329341
    7      C      -0.0926505618     0.5145825504     0.4951553478
    8      C      -1.1668670994     0.3020068389    -0.6593640676
    9      C      -2.4336370881    -0.4755912106    -0.3534106678
   10      C      -3.5926429530     0.1944000841    -0.1125789459
   11      C       1.4481890322    -1.8754939494    -1.1465867563
   12      C       1.1561197002    -2.0027227503     1.3714809166
   13      C       2.0496890787     2.8326796617     0.1688311776
   14      C      -4.8861610043    -0.4042627721     0.1555556629
   15      C      -6.0176141784     0.3037743784     0.3940707267
   16      C      -2.3337501593    -1.9958648139    -0.3691815408
   17      O      -0.5612951587     1.9199049747     0.5873809025
   18      O      -1.3847655391     1.7677478578    -0.6829582279
   19      H       3.6103362009    -1.0915930702     1.4675655958
   20      H       3.6543853617    -2.3868463541     0.2643247099
   21      H       3.9023468129    -0.6001057480    -1.5598529121
   22      H       5.2462829215    -0.5616892541    -0.4158549138
   23      H       4.1428978494     1.7497798689    -0.9425287048
   24      H       4.3476396155     1.3670669835     0.7518885856
   25      H      -0.3847885649    -0.0099635840     1.4157893779
   26      H      -0.7276001459    -0.0210710264    -1.6186008476
   27      H      -3.5470193967     1.2881370935    -0.1197262643
   28      H       1.8987028793    -1.3501241984    -2.0003519740
   29      H       0.3616441987    -1.8955732608    -1.3137607646
   30      H       1.8004617597    -2.9194741459    -1.1651759190
   31      H       1.3931359036    -1.5606423730     2.3512029193
   32      H       1.5399693900    -3.0346687425     1.3686828962
   33      H       0.0633789320    -2.0663140862     1.2842466132
   34      H       3.0115305763     3.3601799954     0.0747322344
   35      H       1.5919420827     3.1396083593     1.1162779445
   36      H       1.3810310481     3.1955658550    -0.6214021330
   37      H      -4.9412093973    -1.5012347515     0.1649897248
   38      H      -6.0149473992     1.3987508240     0.3961542582
   39      H      -6.9752589564    -0.1825012814     0.5952630200
   40      H      -1.3181505889    -2.3343949424    -0.6156218997
   41      H      -3.0141512485    -2.4447982245    -1.1105236606
   42      H      -2.5947834761    -2.4333227197     0.6075677043
 ----------------------------------------------------------------
 Molecular Point Group                 C1    NOp =  1
 Largest Abelian Subgroup              C1    NOp =  1
 Nuclear Repulsion Energy =  1376.5505153851 hartrees
 There are       68 alpha and       68 beta electrons
 Applying Cartesian multipole field
    Component          Value
    ---------          -----
     (2,0,0)        1.00000E-12
     (0,2,0)        2.00000E-11
     (0,0,2)       -3.00000E-11
 Nucleus-field energy     =     0.0000000192 hartrees
 Requested basis set is 6-31G(d,p)
 There are 144 shells and 390 basis functions
 A cutoff of  1.0D-11 yielded   6636 shell pairs
 There are     50279 function pairs
 Smallest overlap matrix eigenvalue = 1.40E-03
 Guess MOs from SCF MO coefficient file

 -----------------------------------------------------------------------
  General SCF calculation program by
  Eric Jon Sundstrom, Paul Horn, Yuezhi Mao, Dmitri Zuev, Alec White,
  David Stuck, Shaama M.S., Shane Yost, Joonho Lee, David Small,
  Daniel Levine, Susi Lehtola, Hugh Burton, Evgeny Epifanovsky
 -----------------------------------------------------------------------
 Exchange:  B88      Correlation:  LYP
 Using SG-1 standard quadrature grid
 using 12 threads for integral computing
 -------------------------------------------------------
 OpenMP Integral computing Module                
 Release: version 1.0, May 2013, Q-Chem Inc. Pittsburgh 
 -------------------------------------------------------
 -------------------------------------------------------
 OpenMP BLAS3 based DFT computing Module                
 Release: version 1.0, May 2013, Q-Chem Inc. Pittsburgh 
 -------------------------------------------------------
 A restricted SCF calculation will be
 performed using DIIS
 SCF converges when DIIS error is below 1.0e-08
 ---------------------------------------
  Cycle       Energy         DIIS error
 ---------------------------------------
    1    -774.0531738904      7.57e-04  
    2    -774.0734189965      1.14e-04  
    3    -774.0727361546      2.37e-04  
    4    -774.0735580016      7.58e-05  
    5    -774.0736433785      1.97e-05  
    6    -774.0736490991      7.70e-06  
    7    -774.0736501720      2.13e-06  
    8    -774.0736502359      1.16e-06  
    9    -774.0736502589      4.54e-07  
   10    -774.0736502627      1.54e-07  
   11    -774.0736502631      4.03e-08  
   12    -774.0736502631      2.29e-08  
   13    -774.0736502631      4.51e-09  Convergence criterion met
 ---------------------------------------
 SCF time:   CPU 294.50s  wall 25.00s 
 SCF   energy in the final basis set =     -774.0736502631
 Total energy in the final basis set =     -774.0736502631
 
 --------------------------------------------------------------
 
                    Orbital Energies (a.u.)
 --------------------------------------------------------------
 
 Alpha MOs
 -- Occupied --
-18.839 -18.837  -9.988  -9.985  -9.945  -9.935  -9.931  -9.930
 -9.926  -9.924  -9.922  -9.919  -9.919  -9.918  -9.918  -9.918
 -9.917  -9.907  -0.995  -0.795  -0.755  -0.728  -0.698  -0.686
 -0.671  -0.640  -0.612  -0.608  -0.599  -0.592  -0.545  -0.519
 -0.501  -0.490  -0.458  -0.446  -0.434  -0.427  -0.414  -0.399
 -0.390  -0.387  -0.374  -0.371  -0.367  -0.365  -0.354  -0.350
 -0.342  -0.339  -0.335  -0.330  -0.320  -0.315  -0.306  -0.302
 -0.301  -0.291  -0.284  -0.282  -0.272  -0.268  -0.263  -0.260
 -0.248  -0.190  -0.179  -0.169
 -- Virtual --
 -0.059  -0.045  -0.005   0.035   0.057   0.058   0.073   0.080
  0.092   0.097   0.100   0.104   0.109   0.110   0.118   0.123
  0.130   0.136   0.139   0.149   0.153   0.156   0.159   0.164
  0.168   0.175   0.176   0.179   0.184   0.196   0.197   0.205
  0.211   0.215   0.228   0.238   0.242   0.245   0.261   0.283
  0.291   0.319   0.337   0.358   0.374   0.426   0.444   0.452
  0.460   0.463   0.478   0.483   0.496   0.501   0.511   0.516
  0.524   0.529   0.536   0.547   0.554   0.565   0.570   0.575
  0.583   0.593   0.599   0.601   0.609   0.619   0.624   0.628
  0.643   0.650   0.668   0.677   0.681   0.704   0.706   0.709
  0.723   0.742   0.748   0.752   0.762   0.769   0.776   0.778
  0.790   0.794   0.800   0.801   0.809   0.815   0.817   0.826
  0.832   0.840   0.843   0.857   0.865   0.868   0.877   0.881
  0.887   0.893   0.897   0.910   0.911   0.925   0.933   0.945
  0.955   0.971   0.996   1.001   1.012   1.031   1.045   1.059
  1.072   1.084   1.094   1.113   1.116   1.141   1.169   1.181
  1.206   1.242   1.245   1.259   1.267   1.288   1.307   1.315
  1.329   1.340   1.365   1.384   1.394   1.399   1.414   1.450
  1.457   1.475   1.490   1.512   1.525   1.551   1.561   1.578
  1.595   1.603   1.627   1.646   1.656   1.667   1.689   1.694
  1.710   1.714   1.728   1.743   1.749   1.768   1.770   1.783
  1.797   1.800   1.806   1.818   1.822   1.827   1.833   1.844
  1.848   1.869   1.877   1.889   1.901   1.919   1.927   1.934
  1.950   1.963   1.977   1.988   1.996   1.997   2.003   2.007
  2.014   2.023   2.026   2.032   2.040   2.049   2.055   2.062
  2.069   2.077   2.082   2.099   2.103   2.117   2.122   2.129
  2.132   2.144   2.149   2.168   2.170   2.195   2.214   2.222
  2.239   2.262   2.271   2.283   2.300   2.317   2.330   2.332
  2.349   2.357   2.369   2.375   2.395   2.416   2.419   2.432
  2.449   2.454   2.459   2.470   2.484   2.515   2.526   2.531
  2.541   2.550   2.557   2.570   2.586   2.597   2.610   2.616
  2.626   2.630   2.643   2.654   2.659   2.676   2.683   2.700
  2.704   2.710   2.718   2.736   2.751   2.764   2.771   2.778
  2.785   2.796   2.798   2.809   2.817   2.851   2.852   2.876
  2.889   2.911   2.958   2.981   2.997   3.006   3.059   3.080
  3.114   3.131   3.143   3.166   3.184   3.191   3.229   3.261
  3.282   3.300   3.328   3.343   3.346   3.350   3.354   3.376
  3.381   3.391   3.396   3.417   3.433   3.472   3.487   3.594
  3.715   4.027   4.050   4.112   4.194   4.215   4.278   4.353
  4.395   4.420   4.440   4.476   4.519   4.561   4.601   4.622
  4.681   4.709
 --------------------------------------------------------------
 
          Ground-State Mulliken Net Atomic Charges

     Atom                 Charge (a.u.)
  ----------------------------------------
      1 C                    -0.137516
      2 C                    -0.165309
      3 C                    -0.201795
      4 C                     0.069539
      5 C                     0.088590
      6 C                     0.019110
      7 C                     0.116079
      8 C                     0.121789
      9 C                     0.089620
     10 C                    -0.080718
     11 C                    -0.282448
     12 C                    -0.295276
     13 C                    -0.322133
     14 C                    -0.001424
     15 C                    -0.220567
     16 C                    -0.364134
     17 O                    -0.296550
     18 O                    -0.295197
     19 H                     0.074451
     20 H                     0.065640
     21 H                     0.084673
     22 H                     0.071186
     23 H                     0.087716
     24 H                     0.094489
     25 H                     0.095010
     26 H                     0.095630
     27 H                     0.083881
     28 H                     0.094353
     29 H                     0.086786
     30 H                     0.084955
     31 H                     0.093922
     32 H                     0.085002
     33 H                     0.090766
     34 H                     0.074668
     35 H                     0.113485
     36 H                     0.123734
     37 H                     0.052464
     38 H                     0.085055
     39 H                     0.080865
     40 H                     0.106559
     41 H                     0.115009
     42 H                     0.118041
  ----------------------------------------
  Sum of atomic charges =    -0.000000

 -----------------------------------------------------------------
                    Cartesian Multipole Moments
 -----------------------------------------------------------------
    Charge (ESU x 10^10)
                -0.0000
    Dipole Moment (Debye)
         X       1.3260      Y      -2.7214      Z      -0.0646
       Tot       3.0279
    Quadrupole Moments (Debye-Ang)
        XX    -105.9034     XY       4.5182     YY    -111.7170
[...]
         Displacement       0.188393      0.001200      NO
         Energy change     -0.001024      0.000001      NO


 New Cartesian Coordinates Obtained by Inverse Iteration

 Displacement from previous Coordinates is:  1.467201
 ----------------------------------------------------------------
             Standard Nuclear Orientation (Angstroms)
    I     Atom           X                Y                Z
 ----------------------------------------------------------------
    1      C       3.4376920878    -1.2772274983     0.5867417670
    2      C       4.2031524456    -0.3726188698    -0.3870402890
    3      C       3.7288255276     1.0774935983    -0.2165680370
    4      C       2.2247852486     1.2667067751     0.0009357663
    5      C       1.3801464121     0.2234683722     0.2601799993
    6      C       1.8983406638    -1.2544719643     0.3318159810
    7      C      -0.1192227193     0.3995549780     0.5137809467
    8      C      -1.1434121892     0.3523618003    -0.6877836214
    9      C      -2.4525091768    -0.3919903526    -0.4901313685
   10      C      -3.5398803521     0.2625241296     0.0069905045
   11      C       1.5917322800    -2.0060942055    -1.0023066874
   12      C       1.2451737355    -2.0549105208     1.4998871273
   13      C       1.8332128075     2.7471304444    -0.0761251796
   14      C      -4.8602800692    -0.3206284563     0.2240094690
   15      C      -5.9142600691     0.3706661064     0.7179935750
   16      C      -2.4796484398    -1.8624708051    -0.8923926194
   17      O      -0.5662786164     1.7817711380     0.7649633222
   18      O      -1.2916603844     1.8118922661    -0.5672574244
   19      H       3.6321964553    -0.9394757486     1.6218268180
   20      H       3.7945537468    -2.3208911237     0.5212518627
   21      H       4.0266886969    -0.7056693343    -1.4240320167
   22      H       5.2919867834    -0.4435330749    -0.2214759237
   23      H       4.0359188585     1.6868378510    -1.0871301062
   24      H       4.2414835547     1.5438403298     0.6501685535
   25      H      -0.4432118852    -0.2169307695     1.3679074850
   26      H      -0.6848830728     0.1037205042    -1.6621474881
   27      H      -3.4215356472     1.3204776582     0.2554855220
   28      H       2.0544466686    -1.5093368367    -1.8681918584
   29      H       0.5127195328    -2.0644532023    -1.2023058699
   30      H       1.9718450146    -3.0414405522    -0.9557566294
   31      H       1.3702994914    -1.5340016458     2.4638241104
   32      H       1.7334042996    -3.0402584722     1.5873178702
   33      H       0.1712221825    -2.2433849720     1.3476761074
   34      H       2.7293906391     3.3629460675    -0.2543314613
   35      H       1.3537400615     3.1046534905     0.8448238416
   36      H       1.1232584415     2.9398806412    -0.8960434788
   37      H      -5.0017523368    -1.3765969348    -0.0295498537
   38      H      -5.8271883163     1.4266552139     0.9882953493
   39      H      -6.8889266757    -0.0979565563     0.8670973248
   40      H      -1.5179560105    -2.1981413038    -1.3059061138
   41      H      -3.2454495398    -2.0571403909    -1.6626859032
   42      H      -2.7098105592    -2.5165061988    -0.0338072236
 ----------------------------------------------------------------
 Molecular Point Group                 C1    NOp =  1
 Largest Abelian Subgroup              C1    NOp =  1
 Nuclear Repulsion Energy =  1376.7810833305 hartrees
 There are       68 alpha and       68 beta electrons
 Applying Cartesian multipole field
    Component          Value
    ---------          -----
     (2,0,0)        1.00000E-12
     (0,2,0)        2.00000E-11
     (0,0,2)       -3.00000E-11
 Nucleus-field energy     =     0.0000000172 hartrees
 Requested basis set is 6-31G(d,p)
 There are 144 shells and 390 basis functions
 A cutoff of  1.0D-11 yielded   6578 shell pairs
 There are     49900 function pairs
 Smallest overlap matrix eigenvalue = 1.45E-03
 Guess MOs from SCF MO coefficient file

 -----------------------------------------------------------------------
  General SCF calculation program by
  Eric Jon Sundstrom, Paul Horn, Yuezhi Mao, Dmitri Zuev, Alec White,
  David Stuck, Shaama M.S., Shane Yost, Joonho Lee, David Small,
  Daniel Levine, Susi Lehtola, Hugh Burton, Evgeny Epifanovsky
 -----------------------------------------------------------------------
 Exchange:  B88      Correlation:  LYP
 Using SG-1 standard quadrature grid
 using 12 threads for integral computing
 -------------------------------------------------------
 OpenMP Integral computing Module                
 Release: version 1.0, May 2013, Q-Chem Inc. Pittsburgh 
 -------------------------------------------------------
 -------------------------------------------------------
 OpenMP BLAS3 based DFT computing Module                
 Release: version 1.0, May 2013, Q-Chem Inc. Pittsburgh 
 -------------------------------------------------------
 A restricted SCF calculation will be
 performed using DIIS
 SCF converges when DIIS error is below 1.0e-08
 ---------------------------------------
  Cycle       Energy         DIIS error
 ---------------------------------------
    1    -774.0563530198      6.97e-04  
    2    -774.0771983783      5.65e-05  
    3    -774.0771939271      6.05e-05  
    4    -774.0772213366      4.61e-05  
    5    -774.0772634109      1.33e-05  
    6    -774.0772670633      2.81e-06  
    7    -774.0772671793      1.36e-06  
    8    -774.0772672075      6.57e-07  
    9    -774.0772672154      1.70e-07  
   10    -774.0772672157      7.99e-08  
   11    -774.0772672158      3.62e-08  
   12    -774.0772672158      5.69e-09  Convergence criterion met
 ---------------------------------------
 SCF time:   CPU 269.44s  wall 22.00s 
 SCF   energy in the final basis set =     -774.0772672158
 Total energy in the final basis set =     -774.0772672158
 
 --------------------------------------------------------------
 
                    Orbital Energies (a.u.)
 --------------------------------------------------------------
 
 Alpha MOs
 -- Occupied --
-18.841 -18.837  -9.987  -9.983  -9.943  -9.935  -9.930  -9.930
 -9.927  -9.922  -9.922  -9.919  -9.919  -9.918  -9.918  -9.917
 -9.917  -9.903  -1.002  -0.798  -0.753  -0.727  -0.697  -0.686
 -0.671  -0.640  -0.610  -0.607  -0.597  -0.590  -0.544  -0.517
 -0.500  -0.489  -0.458  -0.445  -0.433  -0.430  -0.413  -0.399
 -0.389  -0.388  -0.374  -0.368  -0.365  -0.363  -0.355  -0.349
 -0.341  -0.338  -0.334  -0.328  -0.320  -0.313  -0.306  -0.301
 -0.300  -0.291  -0.286  -0.283  -0.271  -0.266  -0.262  -0.260
 -0.246  -0.190  -0.178  -0.170
 -- Virtual --
 -0.060  -0.044  -0.006   0.033   0.055   0.060   0.072   0.077
  0.093   0.097   0.103   0.103   0.109   0.110   0.122   0.127
  0.132   0.135   0.141   0.147   0.154   0.155   0.160   0.166
  0.170   0.175   0.177   0.181   0.186   0.196   0.201   0.206
  0.212   0.213   0.229   0.239   0.245   0.247   0.262   0.275
  0.293   0.319   0.336   0.356   0.377   0.430   0.441   0.449
  0.456   0.465   0.468   0.475   0.493   0.501   0.510   0.518
  0.524   0.529   0.539   0.539   0.556   0.567   0.568   0.572
  0.582   0.592   0.598   0.605   0.607   0.616   0.624   0.634
  0.637   0.651   0.672   0.678   0.682   0.700   0.705   0.707
  0.728   0.746   0.752   0.758   0.761   0.766   0.776   0.779
  0.789   0.792   0.796   0.798   0.809   0.813   0.822   0.829
  0.833   0.835   0.845   0.856   0.863   0.868   0.870   0.876
  0.884   0.888   0.900   0.906   0.914   0.921   0.921   0.939
  0.946   0.957   0.969   0.996   1.011   1.019   1.040   1.059
  1.072   1.085   1.098   1.124   1.129   1.148   1.161   1.189
  1.220   1.239   1.246   1.256   1.264   1.293   1.307   1.320
  1.332   1.361   1.363   1.376   1.382   1.406   1.411   1.447
  1.457   1.475   1.490   1.513   1.529   1.549   1.566   1.579
  1.591   1.609   1.635   1.649   1.651   1.669   1.688   1.700
  1.708   1.713   1.734   1.745   1.757   1.766   1.776   1.777
  1.797   1.804   1.807   1.815   1.822   1.824   1.833   1.840
  1.844   1.867   1.880   1.887   1.897   1.916   1.925   1.945
  1.950   1.969   1.981   1.990   1.997   2.000   2.001   2.007
  2.012   2.016   2.024   2.031   2.041   2.045   2.056   2.058
  2.060   2.070   2.082   2.100   2.105   2.112   2.122   2.124
  2.137   2.145   2.160   2.168   2.184   2.200   2.214   2.221
  2.243   2.260   2.275   2.285   2.293   2.310   2.327   2.335
  2.348   2.355   2.363   2.382   2.398   2.413   2.421   2.434
  2.450   2.452   2.458   2.466   2.490   2.514   2.521   2.532
  2.541   2.548   2.554   2.569   2.590   2.602   2.607   2.618
  2.628   2.634   2.642   2.646   2.656   2.670   2.684   2.699
  2.700   2.708   2.715   2.734   2.746   2.762   2.769   2.782
  2.794   2.796   2.802   2.806   2.815   2.846   2.854   2.872
  2.890   2.905   2.951   2.985   2.986   2.996   3.055   3.080
  3.101   3.122   3.141   3.163   3.184   3.189   3.226   3.259
  3.275   3.302   3.328   3.336   3.343   3.348   3.359   3.375
  3.382   3.386   3.398   3.413   3.430   3.466   3.484   3.593
  3.747   4.029   4.054   4.115   4.201   4.215   4.274   4.348
  4.391   4.422   4.452   4.471   4.529   4.570   4.592   4.618
  4.689   4.703
 --------------------------------------------------------------
 
          Ground-State Mulliken Net Atomic Charges

     Atom                 Charge (a.u.)
  ----------------------------------------
      1 C                    -0.136046
      2 C                    -0.165268
      3 C                    -0.201700
      4 C                     0.068256
      5 C                     0.092292
      6 C                     0.020594
      7 C                     0.113046
      8 C                     0.122017
      9 C                     0.098189
     10 C                    -0.084657
     11 C                    -0.286535
     12 C                    -0.289990
     13 C                    -0.322986
     14 C                    -0.003074
     15 C                    -0.218526
     16 C                    -0.365938
     17 O                    -0.292234
     18 O                    -0.289138
     19 H                     0.074466
     20 H                     0.064849
     21 H                     0.083721
     22 H                     0.070892
     23 H                     0.087704
     24 H                     0.095721
     25 H                     0.091921
     26 H                     0.087146
     27 H                     0.084652
     28 H                     0.093801
     29 H                     0.088749
     30 H                     0.085411
     31 H                     0.093624
     32 H                     0.084468
     33 H                     0.086339
     34 H                     0.069909
     35 H                     0.123211
     36 H                     0.117999
     37 H                     0.054114
     38 H                     0.085420
     39 H                     0.080629
     40 H                     0.102680
     41 H                     0.117638
     42 H                     0.116634
  ----------------------------------------
  Sum of atomic charges =    -0.000000

 -----------------------------------------------------------------
                    Cartesian Multipole Moments
 -----------------------------------------------------------------
    Charge (ESU x 10^10)
                -0.0000
    Dipole Moment (Debye)
         X       1.0710      Y      -2.6277      Z      -0.3952
       Tot       2.8650
    Quadrupole Moments (Debye-Ang)
        XX    -105.5830     XY       4.3037     YY    -112.1218
        XZ      -0.0988     YZ       0.7236     ZZ    -111.0731
    Octopole Moments (Debye-Ang^2)
       XXX     -14.0861    XXY      -1.1159    XYY      -1.5199
       YYY       2.9890    XXZ       3.8794    XYZ      -5.6884
       YYZ      -2.5022    XZZ       4.3749    YZZ       3.6415
       ZZZ     -11.9206
    Hexadecapole Moments (Debye-Ang^3)
      XXXX   -5639.6678   XXXY      56.4811   XXYY   -1197.6701
      XYYY      21.6243   YYYY   -1567.3754   XXXZ     -43.6553
      XXYZ      23.6428   XYYZ       2.4352   YYYZ       1.8945
      XXZZ   -1089.2351   XYZZ       8.8261   YYZZ    -347.4022
      XZZZ      29.7797   YZZZ       1.6065   ZZZZ    -495.0669
 -----------------------------------------------------------------
 Calculating analytic gradient of the SCF energy
 Gradient of SCF Energy
            1           2           3           4           5           6
    1  -0.0001985  -0.0001910   0.0002159  -0.0002885  -0.0000921   0.0001383
    2   0.0003132   0.0006695  -0.0005280   0.0000706  -0.0005259  -0.0001960
    3  -0.0002598   0.0004032  -0.0001052   0.0007308   0.0002366  -0.0009474
            7           8           9          10          11          12
    1  -0.0005340  -0.0007396   0.0009242   0.0000556  -0.0003824  -0.0000687
    2   0.0016267   0.0012802  -0.0010030   0.0016437   0.0000046   0.0002802
    3  -0.0008908   0.0009254   0.0005162  -0.0001595   0.0005395  -0.0003026
           13          14          15          16          17          18
    1  -0.0006261  -0.0013426   0.0001790   0.0004384   0.0000392   0.0016513
    2  -0.0011821  -0.0009520  -0.0000005   0.0002335  -0.0003859  -0.0019633
    3  -0.0004324   0.0000739  -0.0001256  -0.0002251  -0.0039133   0.0022300
           19          20          21          22          23          24
    1   0.0001764   0.0003955  -0.0002225   0.0003056   0.0004650  -0.0002275
    2   0.0001354  -0.0003700  -0.0002022  -0.0000309  -0.0000580  -0.0000584
    3   0.0002596   0.0002387  -0.0001206  -0.0002877  -0.0003650   0.0002614
           25          26          27          28          29          30
    1  -0.0005338   0.0002163   0.0002525  -0.0001865   0.0004224   0.0001711
    2   0.0000004   0.0009413  -0.0003694   0.0001340   0.0000388  -0.0003374
    3   0.0014158  -0.0007095   0.0002882  -0.0000873  -0.0004448  -0.0000564
           31          32          33          34          35          36
    1   0.0002226   0.0001458  -0.0001832  -0.0000822  -0.0005413   0.0005773
    2   0.0001962  -0.0002879   0.0001661   0.0004884   0.0003825   0.0001594
    3   0.0001976  -0.0000498  -0.0001240   0.0005747   0.0010275  -0.0007373
           37          38          39          40          41          42
    1  -0.0004792   0.0000780   0.0002196  -0.0002132  -0.0000238  -0.0001331
    2   0.0002697  -0.0002273  -0.0000105  -0.0005714   0.0000864   0.0001392
    3   0.0001240  -0.0000590  -0.0000732   0.0003271  -0.0003057   0.0004117
 Max gradient component =       3.913E-03
 RMS gradient           =       6.768E-04
 Gradient time:  CPU 43.50 s  wall 4.00 s
 Geometry Optimization Parameters
   NAtoms,    NIC,     NZ,  NCons,   NDum,   NFix, NCnnct, MaxDiis
       42     320       0       0       0       0       0       0

 Cartesian Hessian Update
 Hessian Updated using BFGS Update
**WARNING** Hereditary positive definiteness endangered


** GEOMETRY OPTIMIZATION IN DELOCALIZED INTERNAL COORDINATES **
   Searching for a Minimum

   Optimization Cycle:   7

                       Coordinates (Angstroms)
     ATOM                X               Y               Z
      1  C         3.4376920878   -1.2772274983    0.5867417670
      2  C         4.2031524456   -0.3726188698   -0.3870402890
      3  C         3.7288255276    1.0774935983   -0.2165680370
      4  C         2.2247852486    1.2667067751    0.0009357663
      5  C         1.3801464121    0.2234683722    0.2601799993
      6  C         1.8983406638   -1.2544719643    0.3318159810
      7  C        -0.1192227193    0.3995549780    0.5137809467
      8  C        -1.1434121892    0.3523618003   -0.6877836214
      9  C        -2.4525091768   -0.3919903526   -0.4901313685
     10  C        -3.5398803521    0.2625241296    0.0069905045
     11  C         1.5917322800   -2.0060942055   -1.0023066874
     12  C         1.2451737355   -2.0549105208    1.4998871273
     13  C         1.8332128075    2.7471304444   -0.0761251796
     14  C        -4.8602800692   -0.3206284563    0.2240094690
     15  C        -5.9142600691    0.3706661064    0.7179935750
     16  C        -2.4796484398   -1.8624708051   -0.8923926194
     17  O        -0.5662786164    1.7817711380    0.7649633222
     18  O        -1.2916603844    1.8118922661   -0.5672574244
     19  H         3.6321964553   -0.9394757486    1.6218268180
     20  H         3.7945537468   -2.3208911237    0.5212518627
     21  H         4.0266886969   -0.7056693343   -1.4240320167
     22  H         5.2919867834   -0.4435330749   -0.2214759237
     23  H         4.0359188585    1.6868378510   -1.0871301062
     24  H         4.2414835547    1.5438403298    0.6501685535
     25  H        -0.4432118852   -0.2169307695    1.3679074850
     26  H        -0.6848830728    0.1037205042   -1.6621474881
     27  H        -3.4215356472    1.3204776582    0.2554855220
     28  H         2.0544466686   -1.5093368367   -1.8681918584
     29  H         0.5127195328   -2.0644532023   -1.2023058699
     30  H         1.9718450146   -3.0414405522   -0.9557566294
     31  H         1.3702994914   -1.5340016458    2.4638241104
     32  H         1.7334042996   -3.0402584722    1.5873178702
     33  H         0.1712221825   -2.2433849720    1.3476761074
     34  H         2.7293906391    3.3629460675   -0.2543314613
     35  H         1.3537400615    3.1046534905    0.8448238416
     36  H         1.1232584415    2.9398806412   -0.8960434788
     37  H        -5.0017523368   -1.3765969348   -0.0295498537
     38  H        -5.8271883163    1.4266552139    0.9882953493
     39  H        -6.8889266757   -0.0979565563    0.8670973248
     40  H        -1.5179560105   -2.1981413038   -1.3059061138
     41  H        -3.2454495398   -2.0571403909   -1.6626859032
     42  H        -2.7098105592   -2.5165061988   -0.0338072236
   Point Group: c1    Number of degrees of freedom:   120


   Energy is   -774.077267216

 Hessian Updated using BFGS Update
**WARNING** Hereditary positive definiteness endangered

111 Hessian modes will be used to form the next step
  Hessian Eigenvalues:
   -18.701033    0.000000    0.002921    0.003018    0.004597    0.005879
     0.007146    0.007869    0.008910    0.010191    0.011011    0.011299
     0.012113    0.013066    0.019514    0.020688    0.027020    0.029529
     0.030930    0.031010    0.031677    0.034230    0.037218    0.044140
     0.045108    0.047594    0.050179    0.052764    0.053681    0.053957
     0.054156    0.054942    0.060460    0.061501    0.067636    0.071093
     0.071658    0.072619    0.074229    0.075002    0.078068    0.078381
     0.081919    0.083719    0.089421    0.096675    0.102207    0.103658
     0.121231    0.126784    0.133072    0.150063    0.158131    0.158951
     0.159781    0.160124    0.160626    0.162033    0.164088    0.182976
     0.198737    0.208316    0.218976    0.223037    0.231815    0.250456
     0.251590    0.259564    0.263742    0.277970    0.279151    0.282278
     0.288345    0.290510    0.297376    0.300059    0.301541    0.309085
     0.314338    0.316979    0.321406    0.322914    0.323361    0.323708
     0.323838    0.324074    0.324380    0.324492    0.324657    0.325109
     0.325486    0.325741    0.326315    0.327511    0.328413    0.328718
     0.330931    0.333230    0.339332    0.341921    0.345076    0.352878
     0.353568    0.354214    0.354751    0.393203    0.433701    0.464176
     0.530785    0.580917    0.609975
**WARNING** Magnitude of eigenvalue   2 too small.  Replaced by     0.000100
**WARNING** Hessian does not have the Desired Local Structure

 Minimum Search - Taking Simple RFO Step
 Searching for Lamda that Minimizes Along All modes


 ****************************************
 ** UNABLE TO DETERMINE Lamda IN FormD **
 ****************************************



 Q-Chem fatal error occurred in module 0, line    9:

 OPTIMIZE fatal error

