
Running Job 1 of 1 car_1_diox_opt_631g_gga.in
qchem car_1_diox_opt_631g_gga.in_10731.0 /scr/c295_lal/137174/qchem10731/ 1
/usr/software/qchem_511/exe/qcprog.exe_s car_1_diox_opt_631g_gga.in_10731.0 /scr/c295_lal/137174/qchem10731/
Check license passed

                  Welcome to Q-Chem
     A Quantum Leap Into The Future Of Chemistry


 Q-Chem 5.1, Q-Chem, Inc., Pleasanton, CA (2018)

 Yihan Shao,  Zhengting Gan,  E. Epifanovsky,  A. T. B. Gilbert,  M. Wormit,  
 J. Kussmann,  A. W. Lange,  A. Behn,  Jia Deng,  Xintian Feng,  D. Ghosh,  
 M. Goldey,  P. R. Horn,  L. D. Jacobson,  I. Kaliman,  T. Kus,  A. Landau,  
 Jie Liu,  E. I. Proynov,  R. M. Richard,  R. P. Steele,  E. J. Sundstrom,  
 H. L. Woodcock III,  P. M. Zimmerman,  D. Zuev,  B. Albrecht,  E. Alguire,  
 S. A. Baeppler,  D. Barton,  Z. Benda,  Y. A. Bernard,  E. J. Berquist,  
 K. B. Bravaya,  H. Burton,  D. Casanova,  Chun-Min Chang,  Yunqing Chen,  
 A. Chien,  K. D. Closser,  M. P. Coons,  S. Coriani,  S. Dasgupta,  
 A. L. Dempwolff,  M. Diedenhofen,  Hainam Do,  R. G. Edgar,  Po-Tung Fang,  
 S. Faraji,  S. Fatehi,  Qingguo Feng,  K. D. Fenk,  J. Fosso-Tande,  
 Qinghui Ge,  A. Ghysels,  G. Gidofalvi,  J. Gomes,  J. Gonthier,  A. Gunina,  
 D. Hait,  M. W. D. Hanson-Heine,  P. H. P. Harbach,  A. W. Hauser,  
 J. E. Herr,  E. G. Hohenstein,  Z. C. Holden,  Kerwin Hui,  B. C. Huynh,  
 T.-C. Jagau,  Hyunjun Ji,  B. Kaduk,  K. Khistyaev,  Jaehoon Kim,  
 P. Klunzinger,  K. Koh,  D. Kosenkov,  L. Koulias,  T. Kowalczyk,  
 C. M. Krauter,  A. Kunitsa,  Ka Un Lao,  A. Laurent,  K. V. Lawler,  
 Joonho Lee,  D. Lefrancois,  S. Lehtola,  D. S. Levine,  Yi-Pei Li,  
 You-Sheng Lin,  Fenglai Liu,  E. Livshits,  A. Luenser,  P. Manohar,  
 E. Mansoor,  S. F. Manzer,  Shan-Ping Mao,  Yuezhi Mao,  N. Mardirossian,  
 A. V. Marenich,  T. Markovich,  L. A. Martinez-Martinez,  S. A. Maurer,  
 N. J. Mayhall,  S. C. McKenzie,  J.-M. Mewes,  A. F. Morrison,  
 J. W. Mullinax,  K. Nanda,  T. S. Nguyen-Beck,  R. Olivares-Amaya,  
 J. A. Parkhill,  T. M. Perrine,  F. Plasser,  P. Pokhilko,  S. Prager,  
 A. Prociuk,  E. Ramos,  D. R. Rehn,  F. Rob,  M. Schneider,  N. Sergueev,  
 S. M. Sharada,  S. Sharma,  D. W. Small,  T. Stauch,  T. Stein,  
 Yu-Chuan Su,  A. J. W. Thom,  A. Tkatchenko,  T. Tsuchimochi,  N. M. Tubman,  
 L. Vogt,  M. L. Vidal,  O. Vydrov,  M. A. Watson,  J. Wenzel,  
 M. de Wergifosse,  T. A. Wesolowski,  A. White,  J. Witte,  A. Yamada,  
 Jun Yang,  K. Yao,  S. Yeganeh,  S. R. Yost,  Zhi-Qiang You,  A. Zech,  
 Igor Ying Zhang,  Xing Zhang,  Yan Zhao,  Ying Zhu,  B. R. Brooks,  
 G. K. L. Chan,  C. J. Cramer,  M. S. Gordon,  W. J. Hehre,  A. Klamt,  
 M. W. Schmidt,  C. D. Sherrill,  D. G. Truhlar,  A. Aspuru-Guzik,  R. Baer,  
 A. T. Bell,  N. A. Besley,  Jeng-Da Chai,  A. E. DePrince, III,  
 R. A. DiStasio Jr.,  A. Dreuw,  B. D. Dunietz,  T. R. Furlani,  
 Chao-Ping Hsu,  Yousung Jung,  Jing Kong,  D. S. Lambrecht,  WanZhen Liang,  
 C. Ochsenfeld,  V. A. Rassolov,  L. V. Slipchenko,  J. E. Subotnik,  
 T. Van Voorhis,  J. M. Herbert,  A. I. Krylov,  P. M. W. Gill,  M. Head-Gordon

 Contributors to earlier versions of Q-Chem not listed above: 
 R. D. Adamson,  B. Austin,  J. Baker,  G. J. O. Beran,  K. Brandhorst,  
 S. T. Brown,  E. F. C. Byrd,  A. K. Chakraborty,  C.-L. Cheng,  
 Siu Hung Chien,  D. M. Chipman,  D. L. Crittenden,  H. Dachsel,  
 R. J. Doerksen,  A. D. Dutoi,  L. Fusti-Molnar,  W. A. Goddard III,  
 A. Golubeva-Zadorozhnaya,  S. R. Gwaltney,  G. Hawkins,  A. Heyden,  
 S. Hirata,  G. Kedziora,  F. J. Keil,  C. Kelley,  Jihan Kim,  R. A. King,  
 R. Z. Khaliullin,  P. P. Korambath,  W. Kurlancheek,  A. M. Lee,  M. S. Lee,  
 S. V. Levchenko,  Ching Yeh Lin,  D. Liotard,  R. C. Lochan,  I. Lotan,  
 P. E. Maslen,  N. Nair,  D. P. O'Neill,  D. Neuhauser,  E. Neuscamman,  
 C. M. Oana,  R. Olson,  B. Peters,  R. Peverati,  P. A. Pieniazek,  
 Y. M. Rhee,  J. Ritchie,  M. A. Rohrdanz,  E. Rosta,  N. J. Russ,  
 H. F. Schaefer III,  N. E. Schultz,  N. Shenvi,  A. C. Simmonett,  A. Sodt,  
 D. Stuck,  K. S. Thanthiriwatte,  V. Vanovschi,  Tao Wang,  A. Warshel,  
 C. F. Williams,  Q. Wu,  X. Xu,  W. Zhang

 Please cite Q-Chem as follows:
 Y. Shao et al., Mol. Phys. 113, 184-215 (2015)
 DOI: 10.1080/00268976.2014.952696

 Q-Chem 5.1.1 for Intel X86 EM64T Linux

 Parts of Q-Chem use Armadillo 8.300.2 (Tropical Shenanigans).
 http://arma.sourceforge.net/

 Q-Chem begins on Wed Oct 31 18:31:36 2018  

Host: cub-0-5.local
0

     Scratch files written to /scr/c295_lal/137174/qchem10731//
 Aug318 |scratch|qcdevops|jenkins|workspace|build_RNUM -1
Processing $rem in /usr/software/qchem_511/config/preferences.
 MEM_TOTAL  2000 
Input Ideriv = 2
Curr. Ideriv = -1
Max.  Ideriv = 2

Checking the input file for inconsistencies... 	...done.

--------------------------------------------------------------
User input:
--------------------------------------------------------------
$molecule
0 1
C          1.09786        0.95703       -0.22304
C          1.56725       -0.16898        0.66819
C          0.88998       -1.45332        0.21777
C         -0.60454       -1.32893       -0.04619
C         -1.25817       -0.10643       -0.13569
C         -0.42922        1.21265       -0.04493
C         -2.79055        0.02159       -0.40961
C         -3.67452        0.38989        0.74818
C         -4.79269        1.39207        0.42283
C         -6.08046        0.97975        0.28022
C         -0.67544        1.90598        1.31651
C         -0.81452        2.18812       -1.18196
C         -1.27872       -2.67317       -0.22721
C         -7.21543        1.88699       -0.02986
C         -8.45821        1.41428       -0.15561
C         -4.45583        2.85586        0.27248
O         -3.45892       -1.20461       -0.40925
O         -4.15671       -0.91964        0.69060
H          1.32902        0.66606       -1.27380
H          1.67124        1.88540       -0.00517
H          1.32232        0.05121        1.72567
H          2.66924       -0.30065        0.60745
H          1.08760       -2.20737        1.01105
H          1.35327       -1.81803       -0.72538
H         -3.03666        0.55483       -1.35240
H         -3.15547        0.55164        1.71437
H         -6.32699       -0.07113        0.39524
H         -0.43938        1.24103        2.17036
H         -1.71950        2.21643        1.44538
H         -0.05725        2.82521        1.40545
H         -0.64813        1.71671       -2.17482
H         -0.20472        3.11646       -1.12946
H         -1.87386        2.49659       -1.12796
H         -0.55460       -3.51250       -0.14879
H         -1.73546       -2.74060       -1.23699
H         -2.03326       -2.84051        0.56897
H         -7.06106        2.95270       -0.16150
H         -8.67429        0.35684       -0.03508
H         -9.27556        2.09125       -0.38257
H         -3.38822        3.06106        0.42677
H         -5.01549        3.45163        1.02415
H         -4.72002        3.20227       -0.74899
$end

$rem
BASIS = 6-31G
METHOD  = B3LYP
JOBTYPE = OPT
$end
--------------------------------------------------------------
 ----------------------------------------------------------------
             Standard Nuclear Orientation (Angstroms)
    I     Atom           X                Y                Z
 ----------------------------------------------------------------
    1      C       3.4258763046    -1.3198101714     0.3501934609
    2      C       4.1370503450    -0.3451548318    -0.5590891455
    3      C       3.7641597300     1.0667919244    -0.1366426852
    4      C       2.2793756826     1.2855657127     0.1208299275
    5      C       1.3682536978     0.2425653427     0.2292533284
    6      C       1.8806280811    -1.2302143183     0.1679337733
    7      C      -0.1542560615     0.4664783205     0.4965298943
    8      C      -1.0965044217     0.2831266077    -0.6593575189
    9      C      -2.4113336442    -0.4365289620    -0.3219534574
   10      C      -3.5741554833     0.2565234356    -0.1945928976
   11      C       1.4873740718    -1.8771187291    -1.1817756838
   12      C       1.2847662030    -2.0722415668     1.3206582707
   13      C       1.9233344045     2.7499422400     0.2728302064
   14      C      -4.8840562979    -0.3671573341     0.1256774229
   15      C      -5.9894723730     0.3743301914     0.2353199571
   16      C      -2.4113329172    -1.9353685435    -0.1423960708
   17      O      -0.5308115176     1.8110064608     0.4694172627
   18      O      -1.2730293657     1.6682652298    -0.6290027000
   19      H       3.7147546877    -1.0676319766     1.3966878478
   20      H       3.7769416199    -2.3571029561     0.1530142494
   21      H       3.8506255201    -0.5254117947    -1.6137011777
   22      H       5.2404232277    -0.4625707964    -0.4943583994
   23      H       4.1269646658     1.7418104413    -0.9426580732
   24      H       4.2959544603     1.3367191479     0.8022484638
   25      H      -0.5150597526     0.0203876065     1.4476301967
   26      H      -0.6254267078    -0.0095764066    -1.6193105459
   27      H      -3.5787181864     1.3334796188    -0.3306075176
   28      H       1.8677653141    -1.2987090787    -2.0464648925
   29      H       0.4004945403    -1.9482082092    -1.3109543689
   30      H       1.8839600640    -2.9130356268    -1.2499572382
   31      H       1.5510506531    -1.6308610074     2.3055236388
   32      H       1.6710780125    -3.1144461066     1.2890303006
   33      H       0.1833242444    -2.1365211006     1.2662089376
   34      H       2.8172615489     3.4040104598     0.1830340813
   35      H       1.4917760597     2.9376294986     1.2784865935
   36      H       1.2267143109     3.0665499591    -0.5307342758
   37      H      -4.9726583015    -1.4375921585     0.2780452752
   38      H      -5.9628810301     1.4507489192     0.0938525623
   39      H      -6.9380982520    -0.0977580991     0.4700577529
   40      H      -1.4166335716    -2.3775080235    -0.2865815354
   41      H      -3.0891242422    -2.4051188742    -0.8861047126
   42      H      -2.7480057478    -2.1938328695     0.8837836418
 ----------------------------------------------------------------
 Molecular Point Group                 C1    NOp =  1
 Largest Abelian Subgroup              C1    NOp =  1
 Nuclear Repulsion Energy =  1393.6016913242 hartrees
 There are       68 alpha and       68 beta electrons
 Requested basis set is 6-31G
 There are 102 shells and 210 basis functions

 Total QAlloc Memory Limit   2000 MB
 Mega-Array Size       188 MB
 MEM_STATIC part       192 MB
 A cutoff of  1.0D-11 yielded   3759 shell pairs
 There are     17751 function pairs
 
 -------------------------------------------------------
 OpenMP Integral Computing Module                       
 Release: version 1.0, May 2013, Q-Chem Inc. Pittsburgh 
 -------------------------------------------------------
 Integral Job Info:
 Integral job number is                      11
 Integral operator is                         1
 short-range coefficients                     0
 long-range coefficients              100000000
 Omega coefficients                           0
 if combine SR and LR in K                    0
 Integral screening is                        0
 Integral computing path is                   2
 max size of driver memory is            800000
 size of driver memory is                 45569
 size of scratch memory is              2040132
 max col of scratch BK array                289
 max len of scratch array in speh3           22
 max len of scratch index in speh4            8
 max int batch size is                      520
 min int batch size is                       52
 fixed nKL is                                52
 max L of basis functions is                  1
 order of int derivative is                   0
 number of shells is                        102
 number of basis is                         210
 number of cartesian basis is               210
 number of contracted shell pairs          3759
 number of primitive shell pairs          13991
 maxK2 (contraction) of shell pair           36
 max number of K2 of shell pair               1
 max number of CS2 of shell pair            682
 max number of PS2 of shell pair           2712
 mem total for path MDJ                  569258
 -------------------------------------------------------
 Smallest overlap matrix eigenvalue = 1.90E-03

 Scale SEOQF with 1.000000e-02/1.000000e-01/1.000000e-01

 Standard Electronic Orientation quadrupole field applied
 Nucleus-field energy     =     0.0000000187 hartrees
 Guess from superposition of atomic densities
 Warning:  Energy on first SCF cycle will be non-variational
 SAD guess density has 136.000000 electrons

 -----------------------------------------------------------------------
  General SCF calculation program by
  Eric Jon Sundstrom, Paul Horn, Yuezhi Mao, Dmitri Zuev, Alec White,
  David Stuck, Shaama M.S., Shane Yost, Joonho Lee, David Small,
  Daniel Levine, Susi Lehtola, Hugh Burton, Evgeny Epifanovsky
 -----------------------------------------------------------------------
 Exchange:     0.2000 Hartree-Fock + 0.0800 Slater + 0.7200 B88
 Correlation:  0.1900 VWN1RPA + 0.8100 LYP
 Using SG-1 standard quadrature grid
 using 12 threads for integral computing
 -------------------------------------------------------
 OpenMP Integral computing Module                
 Release: version 1.0, May 2013, Q-Chem Inc. Pittsburgh 
 -------------------------------------------------------
 -------------------------------------------------------
 OpenMP BLAS3 based DFT computing Module                
 Release: version 1.0, May 2013, Q-Chem Inc. Pittsburgh 
 -------------------------------------------------------
 A restricted SCF calculation will be
 performed using DIIS
 SCF converges when DIIS error is below 1.0e-08
 ---------------------------------------
  Cycle       Energy         DIIS error
 ---------------------------------------
    1    -777.8990237853      6.51e-02  
    2    -773.8858693332      6.75e-03  
    3    -773.8168713640      7.49e-03  
    4    -774.1587274753      1.34e-03  
    5    -774.1680715863      5.85e-04  
    6    -774.1700549174      1.58e-04  
    7    -774.1701979822      3.31e-05  
    8    -774.1702017449      2.10e-05  
    9    -774.1702043510      4.08e-06  
   10    -774.1702044413      1.07e-06  
   11    -774.1702044470      4.93e-07  
   12    -774.1702044483      8.48e-08  
   13    -774.1702044484      2.12e-08  
   14    -774.1702044484      8.37e-09  Convergence criterion met
 ---------------------------------------
 SCF time:   CPU 168.05s  wall 14.00s 
 SCF   energy in the final basis set =     -774.1702044484
 Total energy in the final basis set =     -774.1702044484
 
 --------------------------------------------------------------
 
                    Orbital Energies (a.u.)
 --------------------------------------------------------------
 
 Alpha MOs
 -- Occupied --
-19.188 -19.185 -10.253 -10.252 -10.207 -10.199 -10.196 -10.191
-10.189 -10.188 -10.182 -10.182 -10.178 -10.177 -10.177 -10.177
-10.175 -10.163  -1.245  -0.907  -0.851  -0.826  -0.791  -0.786
 -0.761  -0.743  -0.691  -0.687  -0.678  -0.671  -0.610  -0.591
 -0.570  -0.562  -0.543  -0.536  -0.522  -0.511  -0.481  -0.464
 -0.454  -0.449  -0.436  -0.434  -0.426  -0.424  -0.419  -0.404
 -0.400  -0.394  -0.391  -0.389  -0.375  -0.371  -0.367  -0.360
 -0.354  -0.347  -0.344  -0.337  -0.323  -0.322  -0.309  -0.305
 -0.297  -0.226  -0.219  -0.209
 -- Virtual --
 -0.025   0.011   0.062   0.067   0.082   0.085   0.093   0.104
  0.112   0.119   0.124   0.127   0.132   0.137   0.143   0.156
  0.160   0.162   0.168   0.178   0.180   0.184   0.188   0.196
  0.199   0.203   0.207   0.212   0.222   0.226   0.232   0.236
  0.246   0.251   0.266   0.274   0.282   0.284   0.294   0.311
  0.339   0.354   0.377   0.399   0.409   0.466   0.513   0.521
  0.534   0.537   0.543   0.553   0.558   0.574   0.578   0.591
  0.593   0.594   0.611   0.617   0.622   0.630   0.638   0.641
  0.656   0.663   0.668   0.673   0.690   0.693   0.704   0.713
  0.721   0.725   0.727   0.767   0.772   0.781   0.788   0.796
  0.809   0.817   0.821   0.832   0.837   0.851   0.862   0.870
  0.883   0.888   0.901   0.909   0.911   0.916   0.923   0.928
  0.938   0.939   0.952   0.960   0.965   0.973   0.977   0.981
  0.988   1.007   1.014   1.023   1.029   1.043   1.051   1.060
  1.088   1.099   1.128   1.137   1.153   1.165   1.188   1.192
  1.222   1.230   1.252   1.261   1.274   1.309   1.322   1.345
  1.420   1.440   1.456   1.488   1.504   1.557   1.586   1.630
  1.667   1.733   1.804   1.916   2.006   2.233
 --------------------------------------------------------------
 
          Ground-State Mulliken Net Atomic Charges

     Atom                 Charge (a.u.)
  ----------------------------------------
      1 C                    -0.229922
      2 C                    -0.253251
      3 C                    -0.306630
      4 C                     0.049018
      5 C                     0.135982
      6 C                    -0.026460
      7 C                     0.001613
      8 C                     0.001917
      9 C                     0.092339
     10 C                    -0.143174
     11 C                    -0.408023
     12 C                    -0.407004
     13 C                    -0.433130
     14 C                    -0.053858
     15 C                    -0.309443
     16 C                    -0.485235
     17 O                    -0.290442
     18 O                    -0.284415
     19 H                     0.123489
     20 H                     0.116938
     21 H                     0.131203
     22 H                     0.120262
     23 H                     0.138870
     24 H                     0.143182
     25 H                     0.165197
     26 H                     0.170122
     27 H                     0.154675
     28 H                     0.139578
     29 H                     0.130221
     30 H                     0.128367
     31 H                     0.135858
     32 H                     0.130184
     33 H                     0.126446
     34 H                     0.117491
     35 H                     0.157127
     36 H                     0.171034
     37 H                     0.121997
     38 H                     0.133848
     39 H                     0.122991
     40 H                     0.149555
     41 H                     0.161113
     42 H                     0.160369
  ----------------------------------------
  Sum of atomic charges =    -0.000000

 -----------------------------------------------------------------
                    Cartesian Multipole Moments
 -----------------------------------------------------------------
    Charge (ESU x 10^10)
                -0.0000
    Dipole Moment (Debye)
         X       1.0987      Y      -2.9729      Z       0.0176
       Tot       3.1695
    Quadrupole Moments (Debye-Ang)
        XX    -105.0327     XY       4.7387     YY    -113.5776
        XZ      -1.0544     YZ      -0.1078     ZZ    -112.1960
    Octopole Moments (Debye-Ang^2)
       XXX     -19.8231    XXY       1.3720    XYY      -2.4410
       YYY       1.4586    XXZ       7.2934    XYZ       1.1185
       YYZ      -0.8466    XZZ       7.8829    YZZ       3.4756
       ZZZ      -0.8336
    Hexadecapole Moments (Debye-Ang^3)
      XXXX   -5622.4650   XXXY      14.7229   XXYY   -1189.4678
      XYYY      -1.7412   YYYY   -1560.5613   XXXZ     -46.9473
      XXYZ     -10.7585   XYYZ      -2.3052   YYYZ      -0.6510
      XXZZ   -1101.7528   XYZZ       6.5445   YYZZ    -334.4855
      XZZZ       4.1895   YZZZ       0.5950   ZZZZ    -414.2183
 -----------------------------------------------------------------
 Calculating analytic gradient of the SCF energy
 Gradient of SCF Energy
            1           2           3           4           5           6
    1  -0.0040134  -0.0133505  -0.0019508   0.0211661  -0.0212386   0.0024738
    2   0.0054743   0.0011061  -0.0043572   0.0189683  -0.0160065   0.0036058
    3  -0.0035117   0.0056477   0.0059150   0.0016161  -0.0075548  -0.0061617
            7           8           9          10          11          12
    1  -0.0611472   0.0327648   0.0051365   0.0017104  -0.0022252   0.0077661
    2   0.0545811   0.0667278  -0.0066691   0.0149303   0.0067400   0.0047347
    3  -0.0330873   0.0298467   0.0081081  -0.0022421   0.0107218  -0.0093838
           13          14          15          16          17          18
    1  -0.0018280  -0.0198517   0.0102587  -0.0026179  -0.0647298   0.0923572
    2  -0.0132144  -0.0108525  -0.0013632   0.0073697  -0.0791589  -0.0506787
    3  -0.0005433   0.0044425  -0.0017145   0.0007396  -0.1309861   0.1322432
           19          20          21          22          23          24
    1   0.0060367   0.0070699  -0.0029278   0.0082228   0.0056936  -0.0001046
    2   0.0047460  -0.0066759  -0.0022015   0.0008599  -0.0028142  -0.0005817
    3   0.0066335  -0.0031915  -0.0058383   0.0019875  -0.0105118   0.0074408
           25          26          27          28          29          30
    1  -0.0096818   0.0076700  -0.0011237   0.0010796  -0.0017484   0.0018461
    2   0.0031231   0.0055623  -0.0000897   0.0045604  -0.0000083  -0.0078259
    3   0.0090444  -0.0085404  -0.0000084  -0.0066210  -0.0016399  -0.0002072
           31          32          33          34          35          36
    1   0.0022157   0.0018648  -0.0061526   0.0039163   0.0015160  -0.0029119
    2   0.0044700  -0.0094928   0.0003908   0.0090580  -0.0027987  -0.0002096
    3   0.0081863   0.0000056  -0.0012200  -0.0009813   0.0137071  -0.0131664
           37          38          39          40          41          42
    1  -0.0051069   0.0027844   0.0022819   0.0033463  -0.0048525  -0.0016142
    2   0.0015534  -0.0002003  -0.0041913  -0.0010270  -0.0002562   0.0021115
    3   0.0007562  -0.0005380   0.0002212  -0.0006303  -0.0087633   0.0097799
 Max gradient component =       1.322E-01
 RMS gradient           =       2.456E-02
 Gradient time:  CPU 43.77 s  wall 4.66 s
 Geometry Optimization Parameters
   NAtoms,    NIC,     NZ,  NCons,   NDum,   NFix, NCnnct, MaxDiis
       42     320       0       0       0       0       0       0


** GEOMETRY OPTIMIZATION IN DELOCALIZED INTERNAL COORDINATES **
   Searching for a Minimum

   Optimization Cycle:   1

                       Coordinates (Angstroms)
     ATOM                X               Y               Z
      1  C         3.4258763046   -1.3198101714    0.3501934609
      2  C         4.1370503450   -0.3451548318   -0.5590891455
      3  C         3.7641597300    1.0667919244   -0.1366426852
      4  C         2.2793756826    1.2855657127    0.1208299275
      5  C         1.3682536978    0.2425653427    0.2292533284
      6  C         1.8806280811   -1.2302143183    0.1679337733
      7  C        -0.1542560615    0.4664783205    0.4965298943
      8  C        -1.0965044217    0.2831266077   -0.6593575189
      9  C        -2.4113336442   -0.4365289620   -0.3219534574
     10  C        -3.5741554833    0.2565234356   -0.1945928976
     11  C         1.4873740718   -1.8771187291   -1.1817756838
     12  C         1.2847662030   -2.0722415668    1.3206582707
     13  C         1.9233344045    2.7499422400    0.2728302064
     14  C        -4.8840562979   -0.3671573341    0.1256774229
     15  C        -5.9894723730    0.3743301914    0.2353199571
     16  C        -2.4113329172   -1.9353685435   -0.1423960708
     17  O        -0.5308115176    1.8110064608    0.4694172627
     18  O        -1.2730293657    1.6682652298   -0.6290027000
     19  H         3.7147546877   -1.0676319766    1.3966878478
     20  H         3.7769416199   -2.3571029561    0.1530142494
     21  H         3.8506255201   -0.5254117947   -1.6137011777
     22  H         5.2404232277   -0.4625707964   -0.4943583994
     23  H         4.1269646658    1.7418104413   -0.9426580732
     24  H         4.2959544603    1.3367191479    0.8022484638
     25  H        -0.5150597526    0.0203876065    1.4476301967
     26  H        -0.6254267078   -0.0095764066   -1.6193105459
     27  H        -3.5787181864    1.3334796188   -0.3306075176
     28  H         1.8677653141   -1.2987090787   -2.0464648925
     29  H         0.4004945403   -1.9482082092   -1.3109543689
     30  H         1.8839600640   -2.9130356268   -1.2499572382
     31  H         1.5510506531   -1.6308610074    2.3055236388
     32  H         1.6710780125   -3.1144461066    1.2890303006
     33  H         0.1833242444   -2.1365211006    1.2662089376
     34  H         2.8172615489    3.4040104598    0.1830340813
     35  H         1.4917760597    2.9376294986    1.2784865935
     36  H         1.2267143109    3.0665499591   -0.5307342758
     37  H        -4.9726583015   -1.4375921585    0.2780452752
     38  H        -5.9628810301    1.4507489192    0.0938525623
     39  H        -6.9380982520   -0.0977580991    0.4700577529
     40  H        -1.4166335716   -2.3775080235   -0.2865815354
     41  H        -3.0891242422   -2.4051188742   -0.8861047126
     42  H        -2.7480057478   -2.1938328695    0.8837836418
   Point Group: c1    Number of degrees of freedom:   120


   Energy is   -774.170204448


 Attempting to Generate Delocalized Internal Coordinates

120 Hessian modes will be used to form the next step
  Hessian Eigenvalues:
     0.002000    0.002891    0.002978    0.004088    0.004364    0.007236
     0.007248    0.007915    0.008945    0.010409    0.011067    0.011596
     0.012289    0.013444    0.019694    0.020689    0.027742    0.030929
     0.030929    0.031142    0.031823    0.035655    0.037189    0.044596
     0.047496    0.049747    0.052163    0.052755    0.053688    0.054067
     0.054119    0.055017    0.059790    0.060438    0.068209    0.071811
     0.071903    0.072816    0.073913    0.075748    0.077898    0.078355
     0.081618    0.089540    0.096618    0.097875    0.099572    0.121057
     0.123652    0.127883    0.133249    0.158353    0.160000    0.160000
     0.160000    0.160000    0.160000    0.160000    0.160000    0.160000
     0.160000    0.160000    0.160000    0.160000    0.160000    0.160000
     0.160000    0.160000    0.186663    0.203572    0.220000    0.220000
     0.230462    0.249361    0.249935    0.249988    0.249992    0.261136
     0.265589    0.266617    0.278622    0.279181    0.288403    0.290959
     0.295047    0.298577    0.302114    0.308844    0.313951    0.321242
     0.323157    0.323591    0.323706    0.323947    0.324298    0.324429
     0.324597    0.324634    0.325206    0.325478    0.325491    0.325660
     0.326413    0.327436    0.328475    0.328574    0.331721    0.338992
     0.339219    0.340345    0.352789    0.353354    0.353623    0.354148
     0.393779    0.458556    0.461005    0.528881    0.530147    0.582073

 Minimum Search - Taking Simple RFO Step
 Searching for Lamda that Minimizes Along All modes
 Value Taken    Lamda =  -0.07643890
 Calculated Step too Large.  Step scaled by  0.720632
 Step Taken.  Stepsize is  0.300000

                             Maximum     Tolerance    Cnvgd?
         Gradient           0.116215      0.000300      NO
         Displacement       0.137974      0.001200      NO
         Energy change     *********      0.000001      NO


 New Cartesian Coordinates Obtained by Inverse Iteration

 Displacement from previous Coordinates is:  0.684793
 ----------------------------------------------------------------
             Standard Nuclear Orientation (Angstroms)
    I     Atom           X                Y                Z
 ----------------------------------------------------------------
    1      C       3.3962923024    -1.3315829100     0.3512975512
    2      C       4.1264113786    -0.3624186390    -0.5663801616
    3      C       3.7680069333     1.0618867544    -0.1462841191
    4      C       2.2881310984     1.2958258222     0.1215348593
    5      C       1.3858101680     0.2676200541     0.2340021516
    6      C       1.8570906378    -1.2173640899     0.1763402758
    7      C      -0.1205242270     0.4848815022     0.5092538716
    8      C      -1.1229439928     0.2864207306    -0.6634400174
    9      C      -2.4096472577    -0.4641458587    -0.3319203684
   10      C      -3.5710408854     0.2196662882    -0.1935581883
   11      C       1.4536490824    -1.8704652159    -1.1712865471
   12      C       1.2329368391    -2.0392980196     1.3344055490
   13      C       1.9688767500     2.7758398159     0.2747129653
   14      C      -4.8756052194    -0.3829955227     0.1230295539
   15      C      -5.9912860251     0.3577461744     0.2465422392
   16      C      -2.3502392145    -1.9724820200    -0.1777429850
   17      O      -0.5274561831     1.8698259099     0.5172238243
   18      O      -1.3313485897     1.7149366837    -0.6435265866
   19      H       3.6774926806    -1.0906742751     1.3935003182
   20      H       3.7117472521    -2.3727494190     0.1628957346
   21      H       3.8349251835    -0.5367323899    -1.6140048722
   22      H       5.2203163669    -0.4981644349    -0.5107182644
   23      H       4.1166701059     1.7516457046    -0.9357068539
   24      H       4.3100850860     1.3277966302     0.7809407789
   25      H      -0.4423141006     0.0166229922     1.4530330346
   26      H      -0.6737886408    -0.0088753753    -1.6231254083
   27      H      -3.5674672376     1.2979197915    -0.3195857923
   28      H       1.8489643712    -1.3120452322    -2.0328987551
   29      H       0.3672297000    -1.9205073227    -1.2992791511
   30      H       1.8292108867    -2.9068025212    -1.2280854781
   31      H       1.5042784332    -1.6054289261     2.3109593900
   32      H       1.5975252965    -3.0797794389     1.3065303513
   33      H       0.1362031577    -2.0824330361     1.2807131776
   34      H       2.8873974248     3.3790043773     0.1774287182
   35      H       1.5445993603     2.9972684824     1.2646567442
   36      H       1.2795378164     3.1250430495    -0.5066028589
   37      H      -4.9510363177    -1.4570111927     0.2631215132
   38      H      -5.9718309498     1.4358631326     0.1168773101
   39      H      -6.9438031260    -0.1073047938     0.4800616379
   40      H      -1.3423827689    -2.3693713225    -0.3368009085
   41      H      -3.0074522294    -2.4656074236    -0.9121178770
   42      H      -2.6648717706    -2.2751229407     0.8340077930
 ----------------------------------------------------------------
 Molecular Point Group                 C1    NOp =  1
 Largest Abelian Subgroup              C1    NOp =  1
 Nuclear Repulsion Energy =  1388.2974522417 hartrees
 There are       68 alpha and       68 beta electrons
 Applying Cartesian multipole field
    Component          Value
    ---------          -----
     (2,0,0)        1.00000E-12
     (0,2,0)        2.00000E-11
     (0,0,2)       -3.00000E-11
 Nucleus-field energy     =     0.0000000190 hartrees
 Requested basis set is 6-31G
 There are 102 shells and 210 basis functions
 A cutoff of  1.0D-11 yielded   3759 shell pairs
 There are     17718 function pairs
 Smallest overlap matrix eigenvalue = 2.00E-03
 Guess MOs from SCF MO coefficient file

 -----------------------------------------------------------------------
  General SCF calculation program by
  Eric Jon Sundstrom, Paul Horn, Yuezhi Mao, Dmitri Zuev, Alec White,
  David Stuck, Shaama M.S., Shane Yost, Joonho Lee, David Small,
  Daniel Levine, Susi Lehtola, Hugh Burton, Evgeny Epifanovsky
 -----------------------------------------------------------------------
 Exchange:     0.2000 Hartree-Fock + 0.0800 Slater + 0.7200 B88
 Correlation:  0.1900 VWN1RPA + 0.8100 LYP
 Using SG-1 standard quadrature grid
 using 12 threads for integral computing
 -------------------------------------------------------
 OpenMP Integral computing Module                
 Release: version 1.0, May 2013, Q-Chem Inc. Pittsburgh 
 -------------------------------------------------------
 -------------------------------------------------------
 OpenMP BLAS3 based DFT computing Module                
 Release: version 1.0, May 2013, Q-Chem Inc. Pittsburgh 
 -------------------------------------------------------
 A restricted SCF calculation will be
 performed using DIIS
 SCF converges when DIIS error is below 1.0e-08
 ---------------------------------------
  Cycle       Energy         DIIS error
 ---------------------------------------
    1    -774.2007770946      1.02e-03  
    2    -774.2091376346      2.84e-04  
    3    -774.2090878327      3.07e-04  
    4    -774.2095528215      8.17e-05  
    5    -774.2095908022      1.71e-05  
    6    -774.2095924692      5.85e-06  
    7    -774.2095926619      1.46e-06  
    8    -774.2095926709      8.23e-07  
    9    -774.2095926747      1.75e-07  
   10    -774.2095926748      7.46e-08  
   11    -774.2095926749      3.44e-08  
   12    -774.2095926749      7.57e-09  Convergence criterion met
 ---------------------------------------
 SCF time:   CPU 144.20s  wall 12.00s 
 SCF   energy in the final basis set =     -774.2095926749
 Total energy in the final basis set =     -774.2095926749
 
 --------------------------------------------------------------
 
                    Orbital Energies (a.u.)
 --------------------------------------------------------------
 
 Alpha MOs
 -- Occupied --
-19.192 -19.189 -10.255 -10.253 -10.207 -10.200 -10.195 -10.189
-10.188 -10.188 -10.181 -10.180 -10.178 -10.177 -10.176 -10.176
-10.176 -10.161  -1.177  -0.902  -0.852  -0.823  -0.789  -0.781
 -0.760  -0.734  -0.693  -0.690  -0.680  -0.672  -0.616  -0.592
 -0.572  -0.563  -0.534  -0.524  -0.512  -0.503  -0.480  -0.464
 -0.453  -0.449  -0.435  -0.434  -0.426  -0.425  -0.417  -0.407
 -0.400  -0.395  -0.392  -0.390  -0.377  -0.372  -0.362  -0.360
 -0.355  -0.346  -0.342  -0.337  -0.326  -0.323  -0.310  -0.307
 -0.297  -0.229  -0.221  -0.218
 -- Virtual --
 -0.027   0.007   0.032   0.059   0.082   0.085   0.094   0.104
  0.113   0.121   0.124   0.128   0.133   0.138   0.143   0.156
  0.157   0.163   0.166   0.178   0.182   0.184   0.189   0.194
  0.198   0.205   0.206   0.210   0.214   0.227   0.228   0.237
  0.245   0.248   0.264   0.273   0.279   0.284   0.291   0.313
  0.330   0.353   0.373   0.399   0.410   0.472   0.509   0.521
  0.526   0.532   0.541   0.547   0.562   0.574   0.576   0.586
  0.589   0.594   0.609   0.616   0.621   0.629   0.641   0.644
  0.655   0.664   0.667   0.668   0.692   0.692   0.701   0.716
  0.717   0.725   0.726   0.767   0.771   0.780   0.789   0.794
  0.811   0.818   0.830   0.836   0.843   0.853   0.868   0.874
  0.886   0.892   0.904   0.913   0.916   0.918   0.926   0.928
  0.941   0.943   0.958   0.963   0.968   0.975   0.981   0.983
  0.995   1.010   1.023   1.028   1.030   1.054   1.060   1.063
  1.093   1.098   1.127   1.134   1.151   1.173   1.189   1.202
  1.220   1.231   1.245   1.254   1.274   1.304   1.316   1.343
  1.398   1.434   1.451   1.469   1.506   1.549   1.576   1.617
  1.658   1.727   1.804   1.899   1.983   2.189
 --------------------------------------------------------------
 
          Ground-State Mulliken Net Atomic Charges

     Atom                 Charge (a.u.)
  ----------------------------------------
      1 C                    -0.231332
      2 C                    -0.253366
      3 C                    -0.309915
      4 C                     0.054377
      5 C                     0.127511
      6 C                    -0.026580
      7 C                     0.010165
      8 C                     0.008276
      9 C                     0.088945
     10 C                    -0.143117
     11 C                    -0.407290
     12 C                    -0.412197
     13 C                    -0.435740
     14 C                    -0.054434
     15 C                    -0.310025
     16 C                    -0.485709
     17 O                    -0.297666
     18 O                    -0.294351
     19 H                     0.124770
     20 H                     0.117389
     21 H                     0.131787
     22 H                     0.121421
     23 H                     0.139681
     24 H                     0.143632
     25 H                     0.165121
     26 H                     0.168820
     27 H                     0.158569
     28 H                     0.140854
     29 H                     0.129469
     30 H                     0.129573
     31 H                     0.137542
     32 H                     0.131407
     33 H                     0.129902
     34 H                     0.118359
     35 H                     0.158031
     36 H                     0.173367
     37 H                     0.119333
     38 H                     0.133954
     39 H                     0.124110
     40 H                     0.152240
     41 H                     0.161520
     42 H                     0.161596
  ----------------------------------------
  Sum of atomic charges =    -0.000000

 -----------------------------------------------------------------
                    Cartesian Multipole Moments
 -----------------------------------------------------------------
    Charge (ESU x 10^10)
                -0.0000
    Dipole Moment (Debye)
         X       1.2688      Y      -3.1793      Z      -0.0006
       Tot       3.4232
    Quadrupole Moments (Debye-Ang)
        XX    -105.1426     XY       4.9809     YY    -113.3375
        XZ      -0.8929     YZ      -0.1299     ZZ    -112.0802
    Octopole Moments (Debye-Ang^2)
       XXX     -17.2931    XXY       1.6547    XYY      -0.9244
       YYY      -1.2182    XXZ       6.7319    XYZ       0.9334
       YYZ      -0.7577    XZZ       8.5458    YZZ       2.6237
       ZZZ      -1.3015
    Hexadecapole Moments (Debye-Ang^3)
      XXXX   -5588.2447   XXXY      -2.4198   XXYY   -1187.1043
      XYYY      -8.3398   YYYY   -1574.1656   XXXZ     -51.6227
      XXYZ     -10.7619   XYYZ      -2.8743   YYYZ      -4.0191
      XXZZ   -1097.9516   XYZZ       1.6154   YYZZ    -337.6239
      XZZZ       3.1320   YZZZ      -3.0160   ZZZZ    -416.7353
 -----------------------------------------------------------------
 Calculating analytic gradient of the SCF energy
 Gradient of SCF Energy
            1           2           3           4           5           6
    1  -0.0025172  -0.0066449  -0.0010919   0.0115937  -0.0074538   0.0029389
    2   0.0010601  -0.0003021   0.0003225   0.0085513  -0.0091682   0.0027290
    3  -0.0005397   0.0011726   0.0037331   0.0018820  -0.0046150  -0.0043572
            7           8           9          10          11          12
    1  -0.0301912   0.0130958   0.0002768   0.0042324  -0.0000078   0.0047214
    2   0.0279178   0.0335274  -0.0038486   0.0081388   0.0033635   0.0019193
    3  -0.0049412   0.0034076   0.0037798  -0.0021281   0.0059652  -0.0045246
           13          14          15          16          17          18
    1  -0.0034680  -0.0073172   0.0018217  -0.0018508  -0.0305066   0.0442443
    2  -0.0058831  -0.0085786   0.0026897   0.0013757  -0.0385579  -0.0240224
    3   0.0004742   0.0024740  -0.0006330   0.0018488  -0.0646703   0.0647238
           19          20          21          22          23          24
    1   0.0030421   0.0030727  -0.0014285   0.0039561   0.0027318  -0.0012944
    2   0.0024657  -0.0030140  -0.0010669   0.0008312  -0.0019059  -0.0007880
    3   0.0026515  -0.0011688  -0.0023946   0.0005884  -0.0054043   0.0037771
           25          26          27          28          29          30
    1  -0.0031678   0.0023142  -0.0017284   0.0000568  -0.0016778   0.0003635
    2   0.0008223   0.0024968  -0.0001491   0.0019196   0.0000164  -0.0035898
    3   0.0057606  -0.0046054  -0.0001992  -0.0030678  -0.0006810  -0.0003737
           31          32          33          34          35          36
    1   0.0006637   0.0000230  -0.0035408   0.0016597   0.0024426   0.0002682
    2   0.0018614  -0.0041500   0.0007377   0.0043910  -0.0010563   0.0002137
    3   0.0033388   0.0001156  -0.0003878  -0.0008582   0.0062182  -0.0062377
           37          38          39          40          41          42
    1  -0.0026781   0.0014570   0.0010630   0.0019961  -0.0012871  -0.0001833
    2   0.0015302  -0.0003140  -0.0024121  -0.0010117   0.0000182   0.0009192
    3   0.0003544  -0.0002405   0.0000717  -0.0003219  -0.0039610   0.0039735
 Max gradient component =       6.472E-02
 RMS gradient           =       1.184E-02
 Gradient time:  CPU 43.75 s  wall 4.84 s
 Geometry Optimization Parameters
   NAtoms,    NIC,     NZ,  NCons,   NDum,   NFix, NCnnct, MaxDiis
       42     320       0       0       0       0       0       0

 Cartesian Hessian Update
 Hessian Updated using BFGS Update


** GEOMETRY OPTIMIZATION IN DELOCALIZED INTERNAL COORDINATES **
   Searching for a Minimum

   Optimization Cycle:   2

                       Coordinates (Angstroms)
     ATOM                X               Y               Z
      1  C         3.3962923024   -1.3315829100    0.3512975512
      2  C         4.1264113786   -0.3624186390   -0.5663801616
      3  C         3.7680069333    1.0618867544   -0.1462841191
      4  C         2.2881310984    1.2958258222    0.1215348593
      5  C         1.3858101680    0.2676200541    0.2340021516
      6  C         1.8570906378   -1.2173640899    0.1763402758
      7  C        -0.1205242270    0.4848815022    0.5092538716
      8  C        -1.1229439928    0.2864207306   -0.6634400174
      9  C        -2.4096472577   -0.4641458587   -0.3319203684
     10  C        -3.5710408854    0.2196662882   -0.1935581883
     11  C         1.4536490824   -1.8704652159   -1.1712865471
     12  C         1.2329368391   -2.0392980196    1.3344055490
     13  C         1.9688767500    2.7758398159    0.2747129653
     14  C        -4.8756052194   -0.3829955227    0.1230295539
     15  C        -5.9912860251    0.3577461744    0.2465422392
     16  C        -2.3502392145   -1.9724820200   -0.1777429850
     17  O        -0.5274561831    1.8698259099    0.5172238243
     18  O        -1.3313485897    1.7149366837   -0.6435265866
     19  H         3.6774926806   -1.0906742751    1.3935003182
     20  H         3.7117472521   -2.3727494190    0.1628957346
     21  H         3.8349251835   -0.5367323899   -1.6140048722
     22  H         5.2203163669   -0.4981644349   -0.5107182644
     23  H         4.1166701059    1.7516457046   -0.9357068539
     24  H         4.3100850860    1.3277966302    0.7809407789
     25  H        -0.4423141006    0.0166229922    1.4530330346
     26  H        -0.6737886408   -0.0088753753   -1.6231254083
     27  H        -3.5674672376    1.2979197915   -0.3195857923
     28  H         1.8489643712   -1.3120452322   -2.0328987551
     29  H         0.3672297000   -1.9205073227   -1.2992791511
     30  H         1.8292108867   -2.9068025212   -1.2280854781
     31  H         1.5042784332   -1.6054289261    2.3109593900
     32  H         1.5975252965   -3.0797794389    1.3065303513
     33  H         0.1362031577   -2.0824330361    1.2807131776
     34  H         2.8873974248    3.3790043773    0.1774287182
     35  H         1.5445993603    2.9972684824    1.2646567442
     36  H         1.2795378164    3.1250430495   -0.5066028589
     37  H        -4.9510363177   -1.4570111927    0.2631215132
     38  H        -5.9718309498    1.4358631326    0.1168773101
     39  H        -6.9438031260   -0.1073047938    0.4800616379
     40  H        -1.3423827689   -2.3693713225   -0.3368009085
     41  H        -3.0074522294   -2.4656074236   -0.9121178770
     42  H        -2.6648717706   -2.2751229407    0.8340077930
   Point Group: c1    Number of degrees of freedom:   120


   Energy is   -774.209592675

 Hessian Updated using BFGS Update

108 Hessian modes will be used to form the next step
  Hessian Eigenvalues:
     0.001999    0.002891    0.002977    0.004088    0.004360    0.007237
     0.007247    0.007914    0.008947    0.010411    0.011067    0.011596
     0.012271    0.013442    0.019695    0.020689    0.027743    0.030929
     0.030929    0.031142    0.031819    0.035913    0.037190    0.044661
     0.047502    0.049705    0.052144    0.052753    0.053683    0.054063
     0.054118    0.055011    0.060247    0.060511    0.068145    0.071775
     0.071812    0.072816    0.073902    0.075748    0.077956    0.078364
     0.081789    0.089538    0.096710    0.097851    0.100991    0.121026
     0.123472    0.126162    0.133503    0.158289    0.159375    0.160000
     0.160000    0.161163    0.186659    0.203574    0.219552    0.220323
     0.230656    0.248362    0.249919    0.249991    0.254088    0.261889
     0.264910    0.265760    0.278528    0.279152    0.287835    0.290939
     0.298076    0.301043    0.304484    0.309300    0.314260    0.321382
     0.323219    0.323590    0.323728    0.324051    0.324251    0.324479
     0.324596    0.324619    0.324918    0.325484    0.325584    0.326147
     0.327228    0.328104    0.328534    0.330792    0.331476    0.337882
     0.339051    0.340354    0.352785    0.353353    0.353623    0.354064
     0.393681    0.416900    0.458923    0.501151    0.530188    0.584397

 Minimum Search - Taking Simple RFO Step
 Searching for Lamda that Minimizes Along All modes
 Value Taken    Lamda =  -0.02411245
 Calculated Step too Large.  Step scaled by  0.838272
 Step Taken.  Stepsize is  0.300000

                             Maximum     Tolerance    Cnvgd?
         Gradient           0.055950      0.000300      NO
         Displacement       0.126730      0.001200      NO
         Energy change     -0.039388      0.000001      NO


 New Cartesian Coordinates Obtained by Inverse Iteration

 Displacement from previous Coordinates is:  1.203002
 ----------------------------------------------------------------
             Standard Nuclear Orientation (Angstroms)
    I     Atom           X                Y                Z
 ----------------------------------------------------------------
    1      C       3.4350744545    -1.3059509394     0.3823229666
    2      C       4.1609095285    -0.3234607296    -0.5349920913
    3      C       3.7441723986     1.0958490163    -0.1460388228
    4      C       2.2507451332     1.2774090945     0.0990387570
    5      C       1.3935253180     0.2301043920     0.2150871968
    6      C       1.8967514536    -1.2484229288     0.1827809273
    7      C      -0.0968956157     0.4282258396     0.4889932761
    8      C      -1.1529357860     0.2457626922    -0.6675939258
    9      C      -2.4489896262    -0.4698959094    -0.3401894395
   10      C      -3.5787923723     0.2506014533    -0.1610573536
   11      C       1.5567387036    -1.9354382261    -1.1699549616
   12      C       1.2813320566    -2.0826282221     1.3415300807
   13      C       1.8791102761     2.7505449602     0.2304737599
   14      C      -4.8954843541    -0.2991837085     0.1410582870
   15      C      -5.9896405483     0.4673418184     0.3134875801
   16      C      -2.4298454829    -1.9841418911    -0.2482447047
   17      O      -0.5032468672     1.8513935681     0.5504076906
   18      O      -1.3441680129     1.7137506541    -0.6685079413
   19      H       3.6763994265    -1.0545546405     1.4261661721
   20      H       3.7753719374    -2.3367354069     0.2144384958
   21      H       3.8963541662    -0.5186682226    -1.5818876487
   22      H       5.2508326717    -0.4306907421    -0.4581177997
   23      H       4.0644025739     1.8030990448    -0.9245879376
   24      H       4.2711702924     1.3968594872     0.7753623812
   25      H      -0.4034951328    -0.0514209542     1.4215355495
   26      H      -0.7270403489    -0.0581032499    -1.6278540331
   27      H      -3.5169304541     1.3316629646    -0.2421735463
   28      H       1.9637414590    -1.3766685246    -2.0196393924
   29      H       0.4808932005    -2.0286550319    -1.3319863454
   30      H       1.9752455359    -2.9508957858    -1.1951896725
   31      H       1.5177730373    -1.6317730436     2.3133993701
   32      H       1.6988525590    -3.0973489462     1.3271012109
   33      H       0.1948475756    -2.1820139491     1.2722833045
   34      H       2.7829657489     3.3674899210     0.1478643778
   35      H       1.4139574286     2.9748349637     1.1943778538
   36      H       1.1861811858     3.0725090257    -0.5511843917
   37      H      -4.9946945942    -1.3789306528     0.2314798085
   38      H      -5.9414921441     1.5499621666     0.2339585247
   39      H      -6.9579767887     0.0325236530     0.5386893610
   40      H      -1.4392274720    -2.3968434793    -0.4452708308
   41      H      -3.1156734698    -2.4348967026    -0.9768696774
   42      H      -2.7324694757    -2.3261512528     0.7495077337
 ----------------------------------------------------------------
 Molecular Point Group                 C1    NOp =  1
 Largest Abelian Subgroup              C1    NOp =  1
 Nuclear Repulsion Energy =  1383.0186134606 hartrees
 There are       68 alpha and       68 beta electrons
 Applying Cartesian multipole field
    Component          Value
    ---------          -----
     (2,0,0)        1.00000E-12
     (0,2,0)        2.00000E-11
     (0,0,2)       -3.00000E-11
 Nucleus-field energy     =     0.0000000191 hartrees
 Requested basis set is 6-31G
 There are 102 shells and 210 basis functions
 A cutoff of  1.0D-11 yielded   3744 shell pairs
 There are     17676 function pairs
 Smallest overlap matrix eigenvalue = 2.03E-03
 Guess MOs from SCF MO coefficient file

 -----------------------------------------------------------------------
  General SCF calculation program by
  Eric Jon Sundstrom, Paul Horn, Yuezhi Mao, Dmitri Zuev, Alec White,
  David Stuck, Shaama M.S., Shane Yost, Joonho Lee, David Small,
  Daniel Levine, Susi Lehtola, Hugh Burton, Evgeny Epifanovsky
 -----------------------------------------------------------------------
 Exchange:     0.2000 Hartree-Fock + 0.0800 Slater + 0.7200 B88
 Correlation:  0.1900 VWN1RPA + 0.8100 LYP
 Using SG-1 standard quadrature grid
 using 12 threads for integral computing
 -------------------------------------------------------
 OpenMP Integral computing Module                
 Release: version 1.0, May 2013, Q-Chem Inc. Pittsburgh 
 -------------------------------------------------------
 -------------------------------------------------------
 OpenMP BLAS3 based DFT computing Module                
 Release: version 1.0, May 2013, Q-Chem Inc. Pittsburgh 
 -------------------------------------------------------
 A restricted SCF calculation will be
 performed using DIIS
 SCF converges when DIIS error is below 1.0e-08
 ---------------------------------------
  Cycle       Energy         DIIS error
 ---------------------------------------
    1    -774.2106385090      1.03e-03  
    2    -774.2218847282      2.53e-04  
    3    -774.2215323069      3.73e-04  
    4    -774.2222383595      7.94e-05  
    5    -774.2222767354      1.58e-05  
    6    -774.2222781258      6.04e-06  
    7    -774.2222783206      1.68e-06  
    8    -774.2222783324      1.03e-06  
    9    -774.2222783380      1.96e-07  
   10    -774.2222783381      1.30e-07  
   11    -774.2222783382      2.66e-08  
   12    -774.2222783382      7.89e-09  Convergence criterion met
 ---------------------------------------
 SCF time:   CPU 143.57s  wall 12.00s 
 SCF   energy in the final basis set =     -774.2222783382
 Total energy in the final basis set =     -774.2222783382
 
 --------------------------------------------------------------
 
                    Orbital Energies (a.u.)
 --------------------------------------------------------------
 
 Alpha MOs
 -- Occupied --
-19.194 -19.191 -10.256 -10.253 -10.208 -10.200 -10.193 -10.188
-10.188 -10.188 -10.180 -10.179 -10.178 -10.176 -10.176 -10.175
-10.175 -10.157  -1.134  -0.899  -0.851  -0.823  -0.789  -0.780
 -0.761  -0.731  -0.695  -0.692  -0.682  -0.672  -0.620  -0.594
 -0.574  -0.564  -0.530  -0.517  -0.505  -0.494  -0.479  -0.464
 -0.453  -0.449  -0.435  -0.432  -0.426  -0.424  -0.416  -0.409
 -0.399  -0.396  -0.391  -0.389  -0.377  -0.373  -0.362  -0.358
 -0.356  -0.346  -0.340  -0.336  -0.323  -0.322  -0.311  -0.309
 -0.297  -0.232  -0.228  -0.217
 -- Virtual --
 -0.030  -0.010   0.024   0.050   0.079   0.086   0.095   0.103
  0.114   0.121   0.125   0.129   0.135   0.137   0.143   0.151
  0.159   0.164   0.167   0.178   0.184   0.184   0.189   0.194
  0.199   0.204   0.206   0.208   0.216   0.228   0.229   0.237
  0.246   0.249   0.264   0.273   0.278   0.281   0.291   0.309
  0.325   0.353   0.374   0.399   0.412   0.477   0.506   0.517
  0.521   0.532   0.540   0.545   0.554   0.573   0.576   0.585
  0.589   0.593   0.607   0.611   0.621   0.630   0.642   0.648
  0.654   0.662   0.666   0.669   0.689   0.694   0.702   0.714
  0.719   0.728   0.730   0.767   0.769   0.784   0.789   0.793
  0.813   0.818   0.836   0.837   0.846   0.856   0.874   0.877
  0.891   0.893   0.905   0.915   0.918   0.920   0.930   0.932
  0.943   0.946   0.964   0.965   0.970   0.977   0.984   0.985
  1.000   1.013   1.024   1.029   1.032   1.041   1.048   1.072
  1.076   1.094   1.124   1.135   1.142   1.165   1.189   1.202
  1.211   1.228   1.250   1.256   1.278   1.298   1.316   1.341
  1.394   1.427   1.453   1.459   1.508   1.551   1.565   1.619
  1.675   1.723   1.803   1.895   1.966   2.173
 --------------------------------------------------------------
 
          Ground-State Mulliken Net Atomic Charges

     Atom                 Charge (a.u.)
  ----------------------------------------
      1 C                    -0.232291
      2 C                    -0.253887
      3 C                    -0.310421
      4 C                     0.055886
      5 C                     0.123592
      6 C                    -0.022290
      7 C                     0.001716
      8 C                     0.004730
      9 C                     0.088946
     10 C                    -0.140776
     11 C                    -0.407561
     12 C                    -0.414404
     13 C                    -0.429735
     14 C                    -0.055079
     15 C                    -0.310478
     16 C                    -0.488369
     17 O                    -0.297666
     18 O                    -0.294435
     19 H                     0.125311
     20 H                     0.117345
     21 H                     0.132171
     22 H                     0.122421
     23 H                     0.140523
     24 H                     0.144085
     25 H                     0.164794
     26 H                     0.166245
     27 H                     0.162549
     28 H                     0.142020
     29 H                     0.128935
     30 H                     0.130646
     31 H                     0.138836
     32 H                     0.132855
     33 H                     0.130237
     34 H                     0.114040
     35 H                     0.161518
     36 H                     0.173438
     37 H                     0.117745
     38 H                     0.133986
     39 H                     0.125111
     40 H                     0.151997
     41 H                     0.162861
     42 H                     0.162855
  ----------------------------------------
  Sum of atomic charges =    -0.000000

 -----------------------------------------------------------------
                    Cartesian Multipole Moments
 -----------------------------------------------------------------
    Charge (ESU x 10^10)
                -0.0000
    Dipole Moment (Debye)
         X       1.2366      Y      -3.2990      Z      -0.0067
       Tot       3.5232
    Quadrupole Moments (Debye-Ang)
        XX    -104.7956     XY       4.8067     YY    -113.0228
        XZ      -0.8034     YZ       0.0933     ZZ    -112.1009
    Octopole Moments (Debye-Ang^2)
       XXX     -17.6025    XXY       1.2333    XYY      -1.3973
       YYY      -0.8672    XXZ       6.9281    XYZ      -0.3282
       YYZ      -0.3972    XZZ       8.6253    YZZ       2.0318
       ZZZ      -1.8266
    Hexadecapole Moments (Debye-Ang^3)
      XXXX   -5623.6224   XXXY      25.3161   XXYY   -1195.7522
      XYYY      18.6143   YYYY   -1585.2115   XXXZ     -52.4627
      XXYZ      -4.2380   XYYZ      -1.4416   YYYZ      -3.6629
      XXZZ   -1105.6895   XYZZ      12.1740   YYZZ    -340.2538
      XZZZ      10.1573   YZZZ      -3.4983   ZZZZ    -418.5857
 -----------------------------------------------------------------
 Calculating analytic gradient of the SCF energy
 Gradient of SCF Energy
            1           2           3           4           5           6
    1  -0.0017566  -0.0008066   0.0004353   0.0001872   0.0007948   0.0015227
    2  -0.0008429  -0.0009712   0.0015384  -0.0009772   0.0007139   0.0009845
    3   0.0005720  -0.0010053   0.0014530   0.0020261  -0.0020207  -0.0020419
            7           8           9          10          11          12
    1  -0.0087294   0.0035317  -0.0017659   0.0026041   0.0006271   0.0011158
    2   0.0105505   0.0109686  -0.0012860   0.0006286   0.0000342  -0.0005605
    3   0.0020486  -0.0031187   0.0007867  -0.0015295   0.0012216  -0.0001040
           13          14          15          16          17          18
    1  -0.0055253  -0.0006330  -0.0001503  -0.0012178  -0.0076080   0.0166871
    2  -0.0031238  -0.0021401   0.0015363  -0.0006980  -0.0111857  -0.0090313
    3   0.0002854   0.0003814  -0.0000560   0.0015914  -0.0297612   0.0291663
           19          20          21          22          23          24
    1   0.0006330   0.0006382  -0.0007230   0.0006167   0.0007649  -0.0007355
    2   0.0007071  -0.0001173  -0.0000998   0.0007138  -0.0011984  -0.0009274
    3   0.0001020  -0.0000675   0.0000703  -0.0003083  -0.0010863   0.0009836
           25          26          27          28          29          30
    1  -0.0003298  -0.0003169  -0.0008327  -0.0003018   0.0019756   0.0000541
    2   0.0023453   0.0028821   0.0000437   0.0002606  -0.0004401  -0.0006094
    3   0.0007689  -0.0004705  -0.0000017  -0.0006990  -0.0005748  -0.0002793
           31          32          33          34          35          36
    1   0.0001075  -0.0005259   0.0010051  -0.0004559   0.0004563   0.0000498
    2   0.0001498  -0.0006541   0.0002257   0.0012321  -0.0008083  -0.0004223
    3   0.0004170  -0.0001162   0.0008710  -0.0002061   0.0019348  -0.0012512
           37          38          39          40          41          42
    1  -0.0005128   0.0005037   0.0003424  -0.0017128  -0.0000304   0.0000174
    2   0.0003722  -0.0002107  -0.0007938   0.0002046   0.0004490   0.0005571
    3   0.0001072  -0.0000834  -0.0000138   0.0003239  -0.0007892   0.0004733
 Max gradient component =       2.976E-02
 RMS gradient           =       4.680E-03
 Gradient time:  CPU 42.35 s  wall 4.54 s
 Geometry Optimization Parameters
   NAtoms,    NIC,     NZ,  NCons,   NDum,   NFix, NCnnct, MaxDiis
       42     320       0       0       0       0       0       0

 Cartesian Hessian Update
 Hessian Updated using BFGS Update


** GEOMETRY OPTIMIZATION IN DELOCALIZED INTERNAL COORDINATES **
   Searching for a Minimum

   Optimization Cycle:   3

                       Coordinates (Angstroms)
     ATOM                X               Y               Z
      1  C         3.4350744545   -1.3059509394    0.3823229666
      2  C         4.1609095285   -0.3234607296   -0.5349920913
      3  C         3.7441723986    1.0958490163   -0.1460388228
      4  C         2.2507451332    1.2774090945    0.0990387570
      5  C         1.3935253180    0.2301043920    0.2150871968
      6  C         1.8967514536   -1.2484229288    0.1827809273
      7  C        -0.0968956157    0.4282258396    0.4889932761
      8  C        -1.1529357860    0.2457626922   -0.6675939258
      9  C        -2.4489896262   -0.4698959094   -0.3401894395
     10  C        -3.5787923723    0.2506014533   -0.1610573536
     11  C         1.5567387036   -1.9354382261   -1.1699549616
     12  C         1.2813320566   -2.0826282221    1.3415300807
     13  C         1.8791102761    2.7505449602    0.2304737599
     14  C        -4.8954843541   -0.2991837085    0.1410582870
     15  C        -5.9896405483    0.4673418184    0.3134875801
     16  C        -2.4298454829   -1.9841418911   -0.2482447047
     17  O        -0.5032468672    1.8513935681    0.5504076906
     18  O        -1.3441680129    1.7137506541   -0.6685079413
     19  H         3.6763994265   -1.0545546405    1.4261661721
     20  H         3.7753719374   -2.3367354069    0.2144384958
     21  H         3.8963541662   -0.5186682226   -1.5818876487
     22  H         5.2508326717   -0.4306907421   -0.4581177997
     23  H         4.0644025739    1.8030990448   -0.9245879376
     24  H         4.2711702924    1.3968594872    0.7753623812
     25  H        -0.4034951328   -0.0514209542    1.4215355495
     26  H        -0.7270403489   -0.0581032499   -1.6278540331
     27  H        -3.5169304541    1.3316629646   -0.2421735463
     28  H         1.9637414590   -1.3766685246   -2.0196393924
     29  H         0.4808932005   -2.0286550319   -1.3319863454
     30  H         1.9752455359   -2.9508957858   -1.1951896725
     31  H         1.5177730373   -1.6317730436    2.3133993701
     32  H         1.6988525590   -3.0973489462    1.3271012109
     33  H         0.1948475756   -2.1820139491    1.2722833045
     34  H         2.7829657489    3.3674899210    0.1478643778
     35  H         1.4139574286    2.9748349637    1.1943778538
     36  H         1.1861811858    3.0725090257   -0.5511843917
     37  H        -4.9946945942   -1.3789306528    0.2314798085
     38  H        -5.9414921441    1.5499621666    0.2339585247
     39  H        -6.9579767887    0.0325236530    0.5386893610
     40  H        -1.4392274720   -2.3968434793   -0.4452708308
     41  H        -3.1156734698   -2.4348967026   -0.9768696774
     42  H        -2.7324694757   -2.3261512528    0.7495077337
   Point Group: c1    Number of degrees of freedom:   120


   Energy is   -774.222278338

 Hessian Updated using BFGS Update

108 Hessian modes will be used to form the next step
  Hessian Eigenvalues:
     0.002035    0.002891    0.002977    0.004095    0.004392    0.007233
     0.007312    0.007916    0.008945    0.010406    0.011067    0.011600
     0.012493    0.013467    0.019696    0.020689    0.027728    0.030929
     0.030929    0.031141    0.031821    0.036340    0.037184    0.044636
     0.047487    0.050025    0.052656    0.052899    0.053602    0.054012
     0.054102    0.054948    0.058280    0.060965    0.068959    0.071808
     0.072579    0.072831    0.074004    0.075695    0.077699    0.078362
     0.081865    0.089510    0.096344    0.097747    0.100994    0.119900
     0.121827    0.128948    0.133967    0.152775    0.158644    0.160000
     0.160362    0.160892    0.186664    0.200664    0.206338    0.220330
     0.225389    0.230969    0.249933    0.250837    0.251613    0.261552
     0.265588    0.272493    0.278855    0.279574    0.289544    0.291157
     0.298434    0.302671    0.304829    0.309291    0.315848    0.321403
     0.323244    0.323631    0.323771    0.324050    0.324381    0.324496
     0.324612    0.324892    0.325482    0.325538    0.325949    0.326280
     0.327233    0.328173    0.328532    0.331218    0.333577    0.338624
     0.340089    0.344777    0.352799    0.353357    0.353629    0.354379
     0.393761    0.405623    0.488035    0.508959    0.536058    0.584989

 Minimum Search - Taking Simple RFO Step
 Searching for Lamda that Minimizes Along All modes
 Value Taken    Lamda =  -0.01488433
 Calculated Step too Large.  Step scaled by  0.794849
 Step Taken.  Stepsize is  0.300000

                             Maximum     Tolerance    Cnvgd?
         Gradient           0.028676      0.000300      NO
         Displacement       0.127728      0.001200      NO
         Energy change     -0.012686      0.000001      NO


 New Cartesian Coordinates Obtained by Inverse Iteration

 Displacement from previous Coordinates is:  2.335054
 ----------------------------------------------------------------
             Standard Nuclear Orientation (Angstroms)
    I     Atom           X                Y                Z
 ----------------------------------------------------------------
    1      C       3.3187810371    -1.3444375179     0.3932221707
    2      C       4.1115166961    -0.4208277870    -0.5324078714
    3      C       3.7894028787     1.0273148764    -0.1606320335
    4      C       2.3127064679     1.3205329914     0.0970016010
    5      C       1.3907692103     0.3304132611     0.2394668756
    6      C       1.7868418552    -1.1772268930     0.2045176881
    7      C      -0.0886610808     0.5300985186     0.5121912642
    8      C      -1.1426347531     0.3124652306    -0.6495939705
    9      C      -2.3910563548    -0.4698718019    -0.3433134811
   10      C      -3.5616471400     0.1747353568    -0.1363115664
   11      C       1.3760130627    -1.8325149784    -1.1463259823
   12      C       1.1082591765    -1.9648324744     1.3612778850
   13      C       2.1019376470     2.8312583877     0.1957301505
   14      C      -4.8397886293    -0.4552141327     0.1364404682
   15      C      -5.9842934833     0.2259899198     0.3398704275
   16      C      -2.2566223465    -1.9800110614    -0.3135259030
   17      O      -0.5730426966     1.9586234777     0.6212627997
   18      O      -1.3982222141     1.8008242044    -0.6778586711
   19      H       3.5743097507    -1.1135922638     1.4354248814
   20      H       3.5770760999    -2.3961851167     0.2274125578
   21      H       3.8330093145    -0.6066203856    -1.5755419324
   22      H       5.1870357225    -0.6090928172    -0.4561836489
   23      H       4.1402019075     1.7142795607    -0.9405309634
   24      H       4.3512186870     1.3085704781     0.7445710913
   25      H      -0.3909346685     0.0138340523     1.4216916603
   26      H      -0.6898727566     0.0158634967    -1.5975370233
   27      H      -3.5489704795     1.2600346481    -0.1743374169
   28      H       1.8221454500    -1.3085571955    -1.9949038008
   29      H       0.2927473513    -1.8324674890    -1.2920715364
   30      H       1.7101417189    -2.8755490102    -1.1723051394
   31      H       1.3703864601    -1.5335179572     2.3323479924
   32      H       1.4619845484    -3.0005973502     1.3448468939
   33      H       0.0192859706    -1.9933272769     1.2830279697
   34      H       3.0722023263     3.3276760926     0.0948236814
   35      H       1.6650249756     3.1388660736     1.1448633283
   36      H       1.4397730981     3.2144275700    -0.5804733606
   37      H      -4.8626649647    -1.5441098193     0.1774330042
   38      H      -6.0115338111     1.3124546459     0.3092535911
   39      H      -6.9253825942    -0.2738402574     0.5435280015
   40      H      -1.2363862921    -2.2999206056    -0.5344095305
   41      H      -2.9117618002    -2.4592558038    -1.0489884047
   42      H      -2.5209457716    -2.3902412723     0.6670504024
 ----------------------------------------------------------------
 Molecular Point Group                 C1    NOp =  1
 Largest Abelian Subgroup              C1    NOp =  1
 Nuclear Repulsion Energy =  1383.7962523905 hartrees
 There are       68 alpha and       68 beta electrons
 Applying Cartesian multipole field
    Component          Value
    ---------          -----
     (2,0,0)        1.00000E-12
     (0,2,0)        2.00000E-11
     (0,0,2)       -3.00000E-11
 Nucleus-field energy     =     0.0000000191 hartrees
 Requested basis set is 6-31G
 There are 102 shells and 210 basis functions
 A cutoff of  1.0D-11 yielded   3784 shell pairs
 There are     17752 function pairs
 Smallest overlap matrix eigenvalue = 2.03E-03
 Guess MOs from SCF MO coefficient file

 -----------------------------------------------------------------------
  General SCF calculation program by
  Eric Jon Sundstrom, Paul Horn, Yuezhi Mao, Dmitri Zuev, Alec White,
  David Stuck, Shaama M.S., Shane Yost, Joonho Lee, David Small,
  Daniel Levine, Susi Lehtola, Hugh Burton, Evgeny Epifanovsky
 -----------------------------------------------------------------------
 Exchange:     0.2000 Hartree-Fock + 0.0800 Slater + 0.7200 B88
 Correlation:  0.1900 VWN1RPA + 0.8100 LYP
 Using SG-1 standard quadrature grid
 using 12 threads for integral computing
 -------------------------------------------------------
 OpenMP Integral computing Module                
 Release: version 1.0, May 2013, Q-Chem Inc. Pittsburgh 
 -------------------------------------------------------
 -------------------------------------------------------
 OpenMP BLAS3 based DFT computing Module                
 Release: version 1.0, May 2013, Q-Chem Inc. Pittsburgh 
 -------------------------------------------------------
 A restricted SCF calculation will be
 performed using DIIS
 SCF converges when DIIS error is below 1.0e-08
 ---------------------------------------
  Cycle       Energy         DIIS error
 ---------------------------------------
    1    -774.1974317853      1.52e-03  
    2    -774.2228943392      2.20e-04  
    3    -774.2226196534      3.68e-04  
    4    -774.2232251639      9.58e-05  
    5    -774.2232649242      2.53e-05  
    6    -774.2232671117      1.33e-05  
    7    -774.2232680814      3.26e-06  
    8    -774.2232681431      1.24e-06  
    9    -774.2232681518      3.09e-07  
   10    -774.2232681523      1.61e-07  
   11    -774.2232681525      3.32e-08  
   12    -774.2232681525      1.21e-08  
   13    -774.2232681525      5.34e-09  Convergence criterion met
 ---------------------------------------
 SCF time:   CPU 157.97s  wall 13.00s 
 SCF   energy in the final basis set =     -774.2232681525
 Total energy in the final basis set =     -774.2232681525
 
 --------------------------------------------------------------
 
                    Orbital Energies (a.u.)
 --------------------------------------------------------------
 
 Alpha MOs
 -- Occupied --
-19.196 -19.194 -10.255 -10.252 -10.209 -10.201 -10.197 -10.190
-10.188 -10.187 -10.181 -10.179 -10.179 -10.177 -10.177 -10.176
-10.176 -10.162  -1.101  -0.894  -0.854  -0.825  -0.792  -0.780
 -0.763  -0.729  -0.697  -0.693  -0.685  -0.675  -0.626  -0.595
 -0.576  -0.565  -0.529  -0.515  -0.503  -0.482  -0.479  -0.465
 -0.456  -0.451  -0.435  -0.431  -0.428  -0.425  -0.416  -0.410
 -0.401  -0.397  -0.393  -0.390  -0.378  -0.372  -0.360  -0.357
 -0.356  -0.346  -0.338  -0.337  -0.325  -0.323  -0.313  -0.310
 -0.298  -0.235  -0.232  -0.217
 -- Virtual --
 -0.039  -0.024   0.019   0.049   0.078   0.087   0.095   0.104
  0.114   0.122   0.124   0.128   0.134   0.135   0.142   0.150
  0.156   0.164   0.166   0.177   0.182   0.185   0.188   0.192
  0.199   0.205   0.206   0.208   0.213   0.225   0.229   0.238
  0.245   0.248   0.262   0.268   0.276   0.280   0.294   0.321
  0.326   0.353   0.375   0.401   0.415   0.475   0.505   0.518
  0.526   0.531   0.539   0.545   0.564   0.572   0.575   0.583
  0.586   0.600   0.607   0.614   0.625   0.630   0.644   0.647
  0.655   0.663   0.669   0.670   0.693   0.696   0.699   0.713
  0.719   0.726   0.734   0.765   0.769   0.783   0.788   0.792
  0.811   0.829   0.841   0.845   0.849   0.856   0.874   0.880
  0.888   0.898   0.906   0.910   0.919   0.924   0.930   0.931
  0.942   0.948   0.963   0.964   0.972   0.979   0.983   0.986
  1.002   1.014   1.027   1.036   1.039   1.053   1.060   1.070
  1.099   1.116   1.119   1.142   1.148   1.178   1.194   1.211
  1.217   1.233   1.246   1.251   1.263   1.274   1.323   1.343
  1.373   1.409   1.448   1.458   1.517   1.542   1.574   1.605
  1.635   1.733   1.805   1.867   1.958   2.131
 --------------------------------------------------------------
 
          Ground-State Mulliken Net Atomic Charges

     Atom                 Charge (a.u.)
  ----------------------------------------
      1 C                    -0.232393
      2 C                    -0.253968
      3 C                    -0.316843
      4 C                     0.065349
      5 C                     0.116958
      6 C                    -0.030097
      7 C                     0.006301
      8 C                    -0.005706
      9 C                     0.093669
     10 C                    -0.141170
     11 C                    -0.402615
     12 C                    -0.418495
     13 C                    -0.444529
     14 C                    -0.056253
     15 C                    -0.310699
     16 C                    -0.486924
     17 O                    -0.297721
     18 O                    -0.295553
     19 H                     0.126531
     20 H                     0.117492
     21 H                     0.132566
     22 H                     0.123556
     23 H                     0.141320
     24 H                     0.144968
     25 H                     0.169066
     26 H                     0.169541
     27 H                     0.162580
     28 H                     0.142053
     29 H                     0.126547
     30 H                     0.130766
     31 H                     0.140628
     32 H                     0.132638
     33 H                     0.135734
     34 H                     0.123582
     35 H                     0.162940
     36 H                     0.172790
     37 H                     0.117110
     38 H                     0.134078
     39 H                     0.125971
     40 H                     0.152827
     41 H                     0.162469
     42 H                     0.162936
  ----------------------------------------
  Sum of atomic charges =    -0.000000

 -----------------------------------------------------------------
                    Cartesian Multipole Moments
 -----------------------------------------------------------------
    Charge (ESU x 10^10)
                -0.0000
    Dipole Moment (Debye)
         X       1.5756      Y      -3.4384      Z      -0.0662
       Tot       3.7828
    Quadrupole Moments (Debye-Ang)
        XX    -104.5675     XY       5.6200     YY    -113.2824
        XZ      -0.7518     YZ       0.0805     ZZ    -112.2372
    Octopole Moments (Debye-Ang^2)
       XXX     -13.6861    XXY       1.6099    XYY       2.4553
       YYY      -5.0415    XXZ       6.2390    XYZ      -0.7806
       YYZ      -1.0675    XZZ       9.4394    YZZ       1.1591
       ZZZ      -3.7050
    Hexadecapole Moments (Debye-Ang^3)
      XXXX   -5499.5814   XXXY     -37.7091   XXYY   -1177.9737
      XYYY     -34.8265   YYYY   -1585.2624   XXXZ     -49.8096
      XXYZ      -2.8550   XYYZ      -0.5661   YYYZ      -5.5476
      XXZZ   -1088.8063   XYZZ     -12.7491   YYZZ    -341.3940
      XZZZ      13.9419   YZZZ      -5.4885   ZZZZ    -422.6155
 -----------------------------------------------------------------
 Calculating analytic gradient of the SCF energy
 Gradient of SCF Energy
            1           2           3           4           5           6
    1   0.0012556   0.0022038   0.0002122  -0.0010017   0.0002169   0.0003138
    2  -0.0005067  -0.0009689   0.0027564   0.0000534  -0.0025984   0.0005587
    3   0.0016273  -0.0010980   0.0002118   0.0008398  -0.0001264  -0.0010813
            7           8           9          10          11          12
    1   0.0047390  -0.0032609   0.0007517  -0.0019353  -0.0004587  -0.0013136
    2  -0.0043659  -0.0052907  -0.0006539  -0.0028383  -0.0009204   0.0004790
    3   0.0046434  -0.0028428  -0.0006911  -0.0007089  -0.0004470   0.0009957
           13          14          15          16          17          18
    1   0.0033266   0.0027031  -0.0006371   0.0004120  -0.0070518  -0.0003336
    2   0.0042093   0.0029186  -0.0004871   0.0006089  -0.0005640   0.0039196
    3  -0.0010088  -0.0007780   0.0001325   0.0015284  -0.0042489   0.0041164
           19          20          21          22          23          24
    1  -0.0006917  -0.0006118  -0.0003022  -0.0014628  -0.0003559  -0.0003531
    2  -0.0001678   0.0015209   0.0005131   0.0001789  -0.0000882  -0.0005522
    3  -0.0013125   0.0004285   0.0011131  -0.0007667   0.0016208  -0.0008283
           25          26          27          28          29          30
    1   0.0001842   0.0000508   0.0000771  -0.0006045  -0.0043171  -0.0003909
    2  -0.0009705  -0.0000643  -0.0003717  -0.0004257   0.0002250   0.0014733
    3  -0.0021933   0.0012186   0.0003550   0.0011745   0.0011768   0.0001457
           31          32          33          34          35          36
    1  -0.0002215  -0.0007721  -0.0003426   0.0009148   0.0021165   0.0021094
    2  -0.0005610   0.0013156   0.0010490  -0.0016634   0.0006173   0.0000459
    3  -0.0012365  -0.0005094  -0.0001566  -0.0000446  -0.0028739   0.0027877
           37          38          39          40          41          42
    1   0.0004871  -0.0001037  -0.0001275   0.0034664   0.0009169   0.0001922
    2  -0.0005021  -0.0000109   0.0004659   0.0009413   0.0003761   0.0003460
    3  -0.0000497   0.0000109   0.0000636  -0.0007797   0.0009179  -0.0013260
 Max gradient component =       7.052E-03
 RMS gradient           =       1.793E-03
 Gradient time:  CPU 42.53 s  wall 4.54 s
 Geometry Optimization Parameters
   NAtoms,    NIC,     NZ,  NCons,   NDum,   NFix, NCnnct, MaxDiis
       42     320       0       0       0       0       0       0

 Cartesian Hessian Update
 Hessian Updated using BFGS Update


** GEOMETRY OPTIMIZATION IN DELOCALIZED INTERNAL COORDINATES **
   Searching for a Minimum

   Optimization Cycle:   4

                       Coordinates (Angstroms)
     ATOM                X               Y               Z
      1  C         3.3187810371   -1.3444375179    0.3932221707
      2  C         4.1115166961   -0.4208277870   -0.5324078714
      3  C         3.7894028787    1.0273148764   -0.1606320335
      4  C         2.3127064679    1.3205329914    0.0970016010
      5  C         1.3907692103    0.3304132611    0.2394668756
      6  C         1.7868418552   -1.1772268930    0.2045176881
      7  C        -0.0886610808    0.5300985186    0.5121912642
      8  C        -1.1426347531    0.3124652306   -0.6495939705
      9  C        -2.3910563548   -0.4698718019   -0.3433134811
     10  C        -3.5616471400    0.1747353568   -0.1363115664
     11  C         1.3760130627   -1.8325149784   -1.1463259823
     12  C         1.1082591765   -1.9648324744    1.3612778850
     13  C         2.1019376470    2.8312583877    0.1957301505
     14  C        -4.8397886293   -0.4552141327    0.1364404682
     15  C        -5.9842934833    0.2259899198    0.3398704275
     16  C        -2.2566223465   -1.9800110614   -0.3135259030
     17  O        -0.5730426966    1.9586234777    0.6212627997
     18  O        -1.3982222141    1.8008242044   -0.6778586711
     19  H         3.5743097507   -1.1135922638    1.4354248814
     20  H         3.5770760999   -2.3961851167    0.2274125578
     21  H         3.8330093145   -0.6066203856   -1.5755419324
     22  H         5.1870357225   -0.6090928172   -0.4561836489
     23  H         4.1402019075    1.7142795607   -0.9405309634
     24  H         4.3512186870    1.3085704781    0.7445710913
     25  H        -0.3909346685    0.0138340523    1.4216916603
     26  H        -0.6898727566    0.0158634967   -1.5975370233
     27  H        -3.5489704795    1.2600346481   -0.1743374169
     28  H         1.8221454500   -1.3085571955   -1.9949038008
     29  H         0.2927473513   -1.8324674890   -1.2920715364
     30  H         1.7101417189   -2.8755490102   -1.1723051394
     31  H         1.3703864601   -1.5335179572    2.3323479924
     32  H         1.4619845484   -3.0005973502    1.3448468939
     33  H         0.0192859706   -1.9933272769    1.2830279697
[...]
       XXX      -7.6664    XXY     -11.6947    XYY      14.8549
       YYY      -1.7774    XXZ      -8.0038    XYZ      -4.0471
       YYZ     -24.7836    XZZ      -5.4765    YZZ      -2.9613
       ZZZ     -44.2529
    Hexadecapole Moments (Debye-Ang^3)
      XXXX   -4905.9070   XXXY     126.8432   XXYY   -1088.7543
      XYYY      26.1023   YYYY   -1433.8868   XXXZ    -104.9891
      XXYZ      39.3608   XYYZ       1.5135   YYYZ      32.3376
      XXZZ    -982.9608   XYZZ       7.2739   YYZZ    -398.5707
      XZZZ     -50.9292   YZZZ      43.5594   ZZZZ    -919.5980
 -----------------------------------------------------------------
 Calculating analytic gradient of the SCF energy
 Gradient of SCF Energy
            1           2           3           4           5           6
    1   0.0000052  -0.0000033  -0.0000035  -0.0000119   0.0000152  -0.0000054
    2   0.0000010   0.0000062  -0.0000011  -0.0000137   0.0000135   0.0000171
    3   0.0000055   0.0000042   0.0000110  -0.0000070  -0.0000138   0.0000134
            7           8           9          10          11          12
    1  -0.0000235   0.0000154  -0.0000089   0.0000009   0.0000024   0.0000077
    2   0.0000612  -0.0000229  -0.0000303  -0.0000047  -0.0000094   0.0000088
    3   0.0000421  -0.0000365  -0.0000125  -0.0000017  -0.0000006  -0.0000034
           13          14          15          16          17          18
    1   0.0000150   0.0000036   0.0000014   0.0000040   0.0000114  -0.0000157
    2   0.0000106  -0.0000048  -0.0000090  -0.0000209  -0.0000350   0.0000294
    3   0.0000004  -0.0000027  -0.0000065   0.0000313  -0.0000319   0.0000131
           19          20          21          22          23          24
    1   0.0000003   0.0000012   0.0000039   0.0000039  -0.0000020   0.0000024
    2   0.0000092   0.0000052   0.0000014   0.0000082   0.0000012   0.0000083
    3   0.0000067   0.0000079   0.0000047   0.0000085  -0.0000000   0.0000008
           25          26          27          28          29          30
    1  -0.0000033  -0.0000018  -0.0000030   0.0000049   0.0000028   0.0000051
    2  -0.0000062  -0.0000003  -0.0000052   0.0000025  -0.0000056   0.0000010
    3  -0.0000075  -0.0000069  -0.0000048   0.0000065   0.0000028   0.0000078
           31          32          33          34          35          36
    1  -0.0000015   0.0000018   0.0000014  -0.0000166  -0.0000047  -0.0000203
    2   0.0000099   0.0000057   0.0000060   0.0000053   0.0000024  -0.0000054
    3   0.0000038   0.0000094   0.0000018   0.0000007  -0.0000042  -0.0000099
           37          38          39          40          41          42
    1  -0.0000047  -0.0000026   0.0000013   0.0000059   0.0000062   0.0000094
    2  -0.0000149  -0.0000079  -0.0000117   0.0000018  -0.0000030  -0.0000037
    3  -0.0000017  -0.0000055  -0.0000036  -0.0000097  -0.0000072  -0.0000049
 Max gradient component =       6.117E-05
 RMS gradient           =       1.255E-05
 Gradient time:  CPU 43.45 s  wall 4.74 s
 Geometry Optimization Parameters
   NAtoms,    NIC,     NZ,  NCons,   NDum,   NFix, NCnnct, MaxDiis
       42     320       0       0       0       0       0       0

 Cartesian Hessian Update
 Hessian Updated using BFGS Update


** GEOMETRY OPTIMIZATION IN DELOCALIZED INTERNAL COORDINATES **
   Searching for a Minimum

   Optimization Cycle:  38

                       Coordinates (Angstroms)
     ATOM                X               Y               Z
      1  C         3.2944273103   -1.4490898548    0.5617159226
      2  C         3.7558658007   -0.8327612096   -0.7621672574
      3  C         3.5228952012    0.6803175602   -0.7087220317
      4  C         2.1321230969    1.0572170510   -0.2263171946
      5  C         1.3202620601    0.1761122299    0.4139287047
      6  C         1.7760188234   -1.2466084963    0.8260940233
      7  C        -0.1022841246    0.5067133691    0.7754745642
      8  C        -1.1313686246    1.0471424742   -0.2593080655
      9  C        -2.2514733877    0.1601933186   -0.7226267656
     10  C        -3.3591229641    0.0156024876    0.0443659464
     11  C         0.9694435270   -2.3166803617    0.0395155995
     12  C         1.5513276255   -1.4669047237    2.3494325330
     13  C         1.7752316135    2.4964174001   -0.5399348212
     14  C        -4.5331518171   -0.7931199440   -0.2495593295
     15  C        -5.6005003478   -0.8687754524    0.5683351631
     16  C        -2.0146621023   -0.4935687095   -2.0647006177
     17  O        -0.2885747125    1.7722394282    1.5982737001
     18  O        -1.5652730260    2.0936981969    0.7337786251
     19  H         3.8626529903   -0.9814924488    1.3792260664
     20  H         3.5173036377   -2.5235445637    0.6000552484
     21  H         3.1940567577   -1.2664781731   -1.6009618985
     22  H         4.8153902539   -1.0516643800   -0.9433121112
     23  H         3.6807068592    1.1342526377   -1.6978730063
     24  H         4.2696223500    1.1510737528   -0.0478115003
     25  H        -0.5695047765   -0.3049706973    1.3338884284
     26  H        -0.6444889896    1.5375247001   -1.1072072184
     27  H        -3.3916807390    0.5799788167    0.9742261774
     28  H         1.1677586993   -2.2507654983   -1.0363655095
     29  H        -0.1106406932   -2.2028738991    0.1900168804
     30  H         1.2456675486   -3.3235206373    0.3770020099
     31  H         2.0362218921   -0.6746864416    2.9307172904
     32  H         1.9896365092   -2.4274221534    2.6476611395
     33  H         0.4924563348   -1.4926508836    2.6271471017
     34  H         1.6191747062    2.6335273715   -1.6202007791
     35  H         2.6193578344    3.1454049626   -0.2684579658
     36  H         0.9005219533    2.8513857261    0.0013891833
     37  H        -4.5439330655   -1.3628744402   -1.1764735603
     38  H        -5.6397107625   -0.3167843492    1.5039168364
     39  H        -6.4643612040   -1.4800410997    0.3291223626
     40  H        -1.9226833263    0.2657227268   -2.8541982949
     41  H        -2.8188648024   -1.1742579290   -2.3500851676
     42  H        -1.0774943436   -1.0665362883   -2.0689962621
   Point Group: c1    Number of degrees of freedom:   120


   Energy is   -774.240264472

 Hessian Updated using BFGS Update

120 Hessian modes will be used to form the next step
  Hessian Eigenvalues:
     0.000861    0.001970    0.002413    0.002999    0.003256    0.004223
     0.005245    0.007871    0.010577    0.011509    0.011986    0.013668
     0.017503    0.020178    0.020800    0.023955    0.028540    0.030984
     0.031161    0.033776    0.035673    0.037889    0.043766    0.045552
     0.049973    0.050346    0.053108    0.054047    0.054346    0.054777
     0.055631    0.060606    0.061625    0.066974    0.070743    0.071914
     0.072343    0.073960    0.078242    0.079324    0.079442    0.080489
     0.083924    0.091835    0.097082    0.099875    0.106540    0.121423
     0.132504    0.138312    0.154133    0.156736    0.158110    0.159393
     0.159833    0.160090    0.160159    0.160216    0.160661    0.161331
     0.161713    0.161848    0.162657    0.165084    0.166067    0.169953
     0.170955    0.176450    0.196925    0.211820    0.220545    0.232541
     0.234316    0.243844    0.253304    0.263637    0.268547    0.279071
     0.283046    0.287905    0.288826    0.294802    0.298944    0.302034
     0.307465    0.314628    0.315530    0.321292    0.321515    0.323284
     0.323663    0.323810    0.324240    0.324504    0.324795    0.325043
     0.325368    0.326564    0.326819    0.329025    0.329991    0.331356
     0.331648    0.335045    0.337950    0.339893    0.343261    0.348437
     0.352463    0.353260    0.353680    0.359169    0.365680    0.374060
     0.384435    0.475168    0.504150    0.564383    0.586074    0.719421

 Minimum Search - Taking Simple RFO Step
 Searching for Lamda that Minimizes Along All modes
 Value Taken    Lamda =   0.00000000
 Step Taken.  Stepsize is  0.004626

                             Maximum     Tolerance    Cnvgd?
         Gradient           0.000052      0.000300     YES
         Displacement       0.002784      0.001200      NO
         Energy change     -0.000000      0.000001     YES

 Final energy is   -774.240264472200     


 ******************************
 **  OPTIMIZATION CONVERGED  **
 ******************************

                       Coordinates (Angstroms)
     ATOM                X               Y               Z
      1  C         3.2944273103   -1.4490898548    0.5617159226
      2  C         3.7558658007   -0.8327612096   -0.7621672574
      3  C         3.5228952012    0.6803175602   -0.7087220317
      4  C         2.1321230969    1.0572170510   -0.2263171946
      5  C         1.3202620601    0.1761122299    0.4139287047
      6  C         1.7760188234   -1.2466084963    0.8260940233
      7  C        -0.1022841246    0.5067133691    0.7754745642
      8  C        -1.1313686246    1.0471424742   -0.2593080655
      9  C        -2.2514733877    0.1601933186   -0.7226267656
     10  C        -3.3591229641    0.0156024876    0.0443659464
     11  C         0.9694435270   -2.3166803617    0.0395155995
     12  C         1.5513276255   -1.4669047237    2.3494325330
     13  C         1.7752316135    2.4964174001   -0.5399348212
     14  C        -4.5331518171   -0.7931199440   -0.2495593295
     15  C        -5.6005003478   -0.8687754524    0.5683351631
     16  C        -2.0146621023   -0.4935687095   -2.0647006177
     17  O        -0.2885747125    1.7722394282    1.5982737001
     18  O        -1.5652730260    2.0936981969    0.7337786251
     19  H         3.8626529903   -0.9814924488    1.3792260664
     20  H         3.5173036377   -2.5235445637    0.6000552484
     21  H         3.1940567577   -1.2664781731   -1.6009618985
     22  H         4.8153902539   -1.0516643800   -0.9433121112
     23  H         3.6807068592    1.1342526377   -1.6978730063
     24  H         4.2696223500    1.1510737528   -0.0478115003
     25  H        -0.5695047765   -0.3049706973    1.3338884284
     26  H        -0.6444889896    1.5375247001   -1.1072072184
     27  H        -3.3916807390    0.5799788167    0.9742261774
     28  H         1.1677586993   -2.2507654983   -1.0363655095
     29  H        -0.1106406932   -2.2028738991    0.1900168804
     30  H         1.2456675486   -3.3235206373    0.3770020099
     31  H         2.0362218921   -0.6746864416    2.9307172904
     32  H         1.9896365092   -2.4274221534    2.6476611395
     33  H         0.4924563348   -1.4926508836    2.6271471017
     34  H         1.6191747062    2.6335273715   -1.6202007791
     35  H         2.6193578344    3.1454049626   -0.2684579658
     36  H         0.9005219533    2.8513857261    0.0013891833
     37  H        -4.5439330655   -1.3628744402   -1.1764735603
     38  H        -5.6397107625   -0.3167843492    1.5039168364
     39  H        -6.4643612040   -1.4800410997    0.3291223626
     40  H        -1.9226833263    0.2657227268   -2.8541982949
     41  H        -2.8188648024   -1.1742579290   -2.3500851676
     42  H        -1.0774943436   -1.0665362883   -2.0689962621

Z-matrix Print:
$molecule
0 1
O 
C  1 1.520940
H  2 1.090391 1 106.849456
C  2 1.504543 1 115.381433 3 -124.428609 0
C  4 1.358447 2 122.398281 1 -54.665698 0
C  5 1.515594 4 124.939621 2 5.939217 0
H  6 1.088187 5 113.334987 4 14.068541 0
H  6 1.098833 5 109.197535 4 133.963037 0
H  6 1.100058 5 110.791383 4 -109.481991 0
C  5 1.519544 4 122.394040 2 -174.054594 0
H  10 1.099719 5 108.331046 4 139.437005 0
H  10 1.102731 5 108.881979 4 -106.412455 0
C  10 1.531842 5 113.282798 4 16.128763 0
H  13 1.096961 10 110.473019 5 -170.083518 0
H  13 1.098779 10 109.801580 5 72.379376 0
C  13 1.531487 10 108.755190 5 -48.400570 0
H  16 1.097997 13 111.274354 10 -175.428042 0
H  16 1.099932 13 108.406171 10 -58.548620 0
C  4 1.549751 2 114.574140 1 125.553090 0
C  19 1.553809 4 110.177862 2 64.960843 0
H  20 1.095990 19 111.197951 4 63.695473 0
H  20 1.096442 19 111.739237 4 -56.891625 0
H  20 1.097235 19 110.215749 4 -176.374903 0
C  19 1.555499 4 110.364562 2 -55.287439 0
H  24 1.094987 19 113.041334 4 67.398963 0
H  24 1.095730 19 110.683986 4 -54.008222 0
H  24 1.097109 19 109.420184 4 -173.132489 0
C  2 1.556231 1 89.413760 3 109.072441 0
H  28 1.093828 2 112.134178 1 96.489966 0
C  28 1.501991 2 119.549879 1 -131.107970 0
C  30 1.355017 28 119.868567 2 80.962826 0
H  31 1.088219 30 116.922434 28 1.201355 0
C  31 1.455599 30 127.178844 28 179.757455 0
H  33 1.088075 31 118.095308 30 0.700064 0
C  33 1.346814 31 123.214952 30 -179.325317 0
H  35 1.084953 33 121.921486 31 -179.890947 0
H  35 1.086989 33 121.517166 31 0.208648 0
O  28 1.506577 2 89.620839 1 -14.066116 0
C  30 1.511505 28 114.359846 2 -99.673973 0
H  39 1.091570 30 112.732391 28 176.824927 0
H  39 1.098451 30 111.269282 28 55.842417 0
H  39 1.099223 30 110.613705 28 -62.480705 0
$end

 
 --------------------------------------------------------------
 
                    Orbital Energies (a.u.)
 --------------------------------------------------------------
 
 Alpha MOs
 -- Occupied --
-19.194 -19.191 -10.248 -10.246 -10.206 -10.204 -10.203 -10.192
-10.191 -10.189 -10.187 -10.186 -10.182 -10.181 -10.178 -10.175
-10.171 -10.171  -1.090  -0.893  -0.856  -0.826  -0.795  -0.784
 -0.767  -0.728  -0.696  -0.691  -0.685  -0.680  -0.627  -0.597
 -0.583  -0.566  -0.533  -0.515  -0.499  -0.483  -0.477  -0.460
 -0.454  -0.450  -0.434  -0.431  -0.423  -0.422  -0.416  -0.408
 -0.404  -0.403  -0.397  -0.388  -0.380  -0.375  -0.361  -0.358
 -0.355  -0.351  -0.344  -0.336  -0.327  -0.322  -0.317  -0.312
 -0.295  -0.244  -0.235  -0.220
 -- Virtual --
 -0.048  -0.025   0.001   0.066   0.072   0.090   0.093   0.100
  0.108   0.116   0.121   0.126   0.130   0.139   0.146   0.152
  0.156   0.168   0.171   0.176   0.183   0.185   0.188   0.194
  0.196   0.197   0.204   0.207   0.213   0.221   0.228   0.233
  0.239   0.249   0.260   0.264   0.277   0.286   0.293   0.306
  0.331   0.349   0.379   0.398   0.421   0.479   0.501   0.503
  0.515   0.529   0.534   0.537   0.545   0.557   0.567   0.574
  0.589   0.592   0.600   0.611   0.615   0.621   0.640   0.648
  0.653   0.659   0.669   0.674   0.682   0.688   0.708   0.708
  0.721   0.728   0.737   0.747   0.755   0.774   0.797   0.810
  0.813   0.823   0.830   0.842   0.857   0.866   0.879   0.888
  0.889   0.914   0.914   0.920   0.928   0.936   0.942   0.944
  0.951   0.953   0.961   0.965   0.971   0.977   0.986   0.988
  0.997   1.001   1.009   1.012   1.019   1.027   1.029   1.036
  1.068   1.076   1.092   1.109   1.124   1.140   1.165   1.176
  1.196   1.222   1.230   1.268   1.271   1.303   1.320   1.332
  1.368   1.428   1.444   1.478   1.504   1.533   1.575   1.586
  1.676   1.709   1.767   1.804   1.911   2.223
 --------------------------------------------------------------
 
          Ground-State Mulliken Net Atomic Charges

     Atom                 Charge (a.u.)
  ----------------------------------------
      1 C                    -0.241538
      2 C                    -0.252316
      3 C                    -0.307354
      4 C                     0.060455
      5 C                     0.148233
      6 C                    -0.028484
      7 C                    -0.002216
      8 C                     0.015659
      9 C                     0.114063
     10 C                    -0.159995
     11 C                    -0.409661
     12 C                    -0.403389
     13 C                    -0.489761
     14 C                    -0.055150
     15 C                    -0.312514
     16 C                    -0.479593
     17 O                    -0.291049
     18 O                    -0.304842
     19 H                     0.129002
     20 H                     0.120927
     21 H                     0.129548
     22 H                     0.125103
     23 H                     0.136919
     24 H                     0.146712
     25 H                     0.154133
     26 H                     0.149000
     27 H                     0.157050
     28 H                     0.135349
     29 H                     0.136421
     30 H                     0.133598
     31 H                     0.144502
     32 H                     0.132565
     33 H                     0.136538
     34 H                     0.139124
     35 H                     0.145646
     36 H                     0.201011
     37 H                     0.120410
     38 H                     0.135207
     39 H                     0.127786
     40 H                     0.156300
     41 H                     0.151189
     42 H                     0.155410
  ----------------------------------------
  Sum of atomic charges =    -0.000000

 -----------------------------------------------------------------
                    Cartesian Multipole Moments
 -----------------------------------------------------------------
    Charge (ESU x 10^10)
                -0.0000
    Dipole Moment (Debye)
         X       1.6860      Y      -2.9252      Z      -2.5636
       Tot       4.2393
    Quadrupole Moments (Debye-Ang)
        XX    -104.4306     XY       5.9661     YY    -116.7566
        XZ       1.4703     YZ      -5.1827     ZZ    -111.0349
    Octopole Moments (Debye-Ang^2)
       XXX      -7.6664    XXY     -11.6947    XYY      14.8549
       YYY      -1.7774    XXZ      -8.0038    XYZ      -4.0471
       YYZ     -24.7836    XZZ      -5.4765    YZZ      -2.9613
       ZZZ     -44.2529
    Hexadecapole Moments (Debye-Ang^3)
      XXXX   -4905.9070   XXXY     126.8432   XXYY   -1088.7543
      XYYY      26.1023   YYYY   -1433.8868   XXXZ    -104.9891
      XXYZ      39.3608   XYYZ       1.5135   YYYZ      32.3376
      XXZZ    -982.9608   XYZZ       7.2739   YYZZ    -398.5707
      XZZZ     -50.9292   YZZZ      43.5594   ZZZZ    -919.5980
 -----------------------------------------------------------------
Archival summary:
1\1\cub-0-5.local\OPT\ProcedureUnspecified\6-31G\21624\c295_lal\WedOct3118:42:012018WedOct3118:42:012018\0\\#,OPT,ProcedureUnspecified,6-31G,\\0,1\O\C,1,1.52094\H,2,1.09039,1,106.849\C,2,1.50454,1,115.381,3,-124.429,0\C,4,1.35845,2,122.398,1,-54.6657,0\C,5,1.51559,4,124.94,2,5.93922,0\H,6,1.08819,5,113.335,4,14.0685,0\H,6,1.09883,5,109.198,4,133.963,0\H,6,1.10006,5,110.791,4,-109.482,0\C,5,1.51954,4,122.394,2,-174.055,0\H,10,1.09972,5,108.331,4,139.437,0\H,10,1.10273,5,108.882,4,-106.412,0\C,10,1.53184,5,113.283,4,16.1288,0\H,13,1.09696,10,110.473,5,-170.084,0\H,13,1.09878,10,109.802,5,72.3794,0\C,13,1.53149,10,108.755,5,-48.4006,0\H,16,1.098,13,111.274,10,-175.428,0\H,16,1.09993,13,108.406,10,-58.5486,0\C,4,1.54975,2,114.574,1,125.553,0\C,19,1.55381,4,110.178,2,64.9608,0\H,20,1.09599,19,111.198,4,63.6955,0\H,20,1.09644,19,111.739,4,-56.8916,0\H,20,1.09723,19,110.216,4,-176.375,0\C,19,1.5555,4,110.365,2,-55.2874,0\H,24,1.09499,19,113.041,4,67.399,0\H,24,1.09573,19,110.684,4,-54.0082,0\H,24,1.09711,19,109.42,4,-173.132,0\C,2,1.55623,1,89.4138,3,109.072,0\H,28,1.09383,2,112.134,1,96.49,0\C,28,1.50199,2,119.55,1,-131.108,0\C,30,1.35502,28,119.869,2,80.9628,0\H,31,1.08822,30,116.922,28,1.20135,0\C,31,1.4556,30,127.179,28,179.757,0\H,33,1.08807,31,118.095,30,0.700064,0\C,33,1.34681,31,123.215,30,-179.325,0\H,35,1.08495,33,121.921,31,-179.891,0\H,35,1.08699,33,121.517,31,0.208648,0\O,28,1.50658,2,89.6208,1,-14.0661,0\C,30,1.5115,28,114.36,2,-99.674,0\H,39,1.09157,30,112.732,28,176.825,0\H,39,1.09845,30,111.269,28,55.8424,0\H,39,1.09922,30,110.614,28,-62.4807,0\\\@

 Total job time:  624.93s(wall), 7009.03s(cpu) 
 Wed Oct 31 18:42:01 2018

        *************************************************************
        *                                                           *
        *  Thank you very much for using Q-Chem.  Have a nice day.  *
        *                                                           *
        *************************************************************


