
Running Job 1 of 1 FeHis4_opt_mixed_gga.in
qchem FeHis4_opt_mixed_gga.in_10207.0 /scr/c295_lal/137034/qchem10207/ 1
/usr/software/qchem_511/exe/qcprog.exe_s FeHis4_opt_mixed_gga.in_10207.0 /scr/c295_lal/137034/qchem10207/
Check license passed

                  Welcome to Q-Chem
     A Quantum Leap Into The Future Of Chemistry


 Q-Chem 5.1, Q-Chem, Inc., Pleasanton, CA (2018)

 Yihan Shao,  Zhengting Gan,  E. Epifanovsky,  A. T. B. Gilbert,  M. Wormit,  
 J. Kussmann,  A. W. Lange,  A. Behn,  Jia Deng,  Xintian Feng,  D. Ghosh,  
 M. Goldey,  P. R. Horn,  L. D. Jacobson,  I. Kaliman,  T. Kus,  A. Landau,  
 Jie Liu,  E. I. Proynov,  R. M. Richard,  R. P. Steele,  E. J. Sundstrom,  
 H. L. Woodcock III,  P. M. Zimmerman,  D. Zuev,  B. Albrecht,  E. Alguire,  
 S. A. Baeppler,  D. Barton,  Z. Benda,  Y. A. Bernard,  E. J. Berquist,  
 K. B. Bravaya,  H. Burton,  D. Casanova,  Chun-Min Chang,  Yunqing Chen,  
 A. Chien,  K. D. Closser,  M. P. Coons,  S. Coriani,  S. Dasgupta,  
 A. L. Dempwolff,  M. Diedenhofen,  Hainam Do,  R. G. Edgar,  Po-Tung Fang,  
 S. Faraji,  S. Fatehi,  Qingguo Feng,  K. D. Fenk,  J. Fosso-Tande,  
 Qinghui Ge,  A. Ghysels,  G. Gidofalvi,  J. Gomes,  J. Gonthier,  A. Gunina,  
 D. Hait,  M. W. D. Hanson-Heine,  P. H. P. Harbach,  A. W. Hauser,  
 J. E. Herr,  E. G. Hohenstein,  Z. C. Holden,  Kerwin Hui,  B. C. Huynh,  
 T.-C. Jagau,  Hyunjun Ji,  B. Kaduk,  K. Khistyaev,  Jaehoon Kim,  
 P. Klunzinger,  K. Koh,  D. Kosenkov,  L. Koulias,  T. Kowalczyk,  
 C. M. Krauter,  A. Kunitsa,  Ka Un Lao,  A. Laurent,  K. V. Lawler,  
 Joonho Lee,  D. Lefrancois,  S. Lehtola,  D. S. Levine,  Yi-Pei Li,  
 You-Sheng Lin,  Fenglai Liu,  E. Livshits,  A. Luenser,  P. Manohar,  
 E. Mansoor,  S. F. Manzer,  Shan-Ping Mao,  Yuezhi Mao,  N. Mardirossian,  
 A. V. Marenich,  T. Markovich,  L. A. Martinez-Martinez,  S. A. Maurer,  
 N. J. Mayhall,  S. C. McKenzie,  J.-M. Mewes,  A. F. Morrison,  
 J. W. Mullinax,  K. Nanda,  T. S. Nguyen-Beck,  R. Olivares-Amaya,  
 J. A. Parkhill,  T. M. Perrine,  F. Plasser,  P. Pokhilko,  S. Prager,  
 A. Prociuk,  E. Ramos,  D. R. Rehn,  F. Rob,  M. Schneider,  N. Sergueev,  
 S. M. Sharada,  S. Sharma,  D. W. Small,  T. Stauch,  T. Stein,  
 Yu-Chuan Su,  A. J. W. Thom,  A. Tkatchenko,  T. Tsuchimochi,  N. M. Tubman,  
 L. Vogt,  M. L. Vidal,  O. Vydrov,  M. A. Watson,  J. Wenzel,  
 M. de Wergifosse,  T. A. Wesolowski,  A. White,  J. Witte,  A. Yamada,  
 Jun Yang,  K. Yao,  S. Yeganeh,  S. R. Yost,  Zhi-Qiang You,  A. Zech,  
 Igor Ying Zhang,  Xing Zhang,  Yan Zhao,  Ying Zhu,  B. R. Brooks,  
 G. K. L. Chan,  C. J. Cramer,  M. S. Gordon,  W. J. Hehre,  A. Klamt,  
 M. W. Schmidt,  C. D. Sherrill,  D. G. Truhlar,  A. Aspuru-Guzik,  R. Baer,  
 A. T. Bell,  N. A. Besley,  Jeng-Da Chai,  A. E. DePrince, III,  
 R. A. DiStasio Jr.,  A. Dreuw,  B. D. Dunietz,  T. R. Furlani,  
 Chao-Ping Hsu,  Yousung Jung,  Jing Kong,  D. S. Lambrecht,  WanZhen Liang,  
 C. Ochsenfeld,  V. A. Rassolov,  L. V. Slipchenko,  J. E. Subotnik,  
 T. Van Voorhis,  J. M. Herbert,  A. I. Krylov,  P. M. W. Gill,  M. Head-Gordon

 Contributors to earlier versions of Q-Chem not listed above: 
 R. D. Adamson,  B. Austin,  J. Baker,  G. J. O. Beran,  K. Brandhorst,  
 S. T. Brown,  E. F. C. Byrd,  A. K. Chakraborty,  C.-L. Cheng,  
 Siu Hung Chien,  D. M. Chipman,  D. L. Crittenden,  H. Dachsel,  
 R. J. Doerksen,  A. D. Dutoi,  L. Fusti-Molnar,  W. A. Goddard III,  
 A. Golubeva-Zadorozhnaya,  S. R. Gwaltney,  G. Hawkins,  A. Heyden,  
 S. Hirata,  G. Kedziora,  F. J. Keil,  C. Kelley,  Jihan Kim,  R. A. King,  
 R. Z. Khaliullin,  P. P. Korambath,  W. Kurlancheek,  A. M. Lee,  M. S. Lee,  
 S. V. Levchenko,  Ching Yeh Lin,  D. Liotard,  R. C. Lochan,  I. Lotan,  
 P. E. Maslen,  N. Nair,  D. P. O'Neill,  D. Neuhauser,  E. Neuscamman,  
 C. M. Oana,  R. Olson,  B. Peters,  R. Peverati,  P. A. Pieniazek,  
 Y. M. Rhee,  J. Ritchie,  M. A. Rohrdanz,  E. Rosta,  N. J. Russ,  
 H. F. Schaefer III,  N. E. Schultz,  N. Shenvi,  A. C. Simmonett,  A. Sodt,  
 D. Stuck,  K. S. Thanthiriwatte,  V. Vanovschi,  Tao Wang,  A. Warshel,  
 C. F. Williams,  Q. Wu,  X. Xu,  W. Zhang

 Please cite Q-Chem as follows:
 Y. Shao et al., Mol. Phys. 113, 184-215 (2015)
 DOI: 10.1080/00268976.2014.952696

 Q-Chem 5.1.1 for Intel X86 EM64T Linux

 Parts of Q-Chem use Armadillo 8.300.2 (Tropical Shenanigans).
 http://arma.sourceforge.net/

 Q-Chem begins on Wed Oct 31 08:41:21 2018  

Host: cub-0-9.local
0

     Scratch files written to /scr/c295_lal/137034/qchem10207//
 Aug318 |scratch|qcdevops|jenkins|workspace|build_RNUM -1
Processing $rem in /usr/software/qchem_511/config/preferences.
 MEM_TOTAL  2000 
Input Ideriv = 2
Curr. Ideriv = -1
Max.  Ideriv = 2
Symmetry disabled for mixed basis and EFP jobs.

Checking the input file for inconsistencies... 	...done.

--------------------------------------------------------------
User input:
--------------------------------------------------------------
$molecule
3 4
Fe        -2.02188        8.67392        5.29699
N         -1.00586       12.49034        5.96233
C         -1.09101       11.63863        4.92061
N         -2.35758       11.47719        4.49788
C         -3.10966       12.25082        5.29529
C         -2.27597       12.87503        6.19604
H         -4.18471       12.35236        5.22619
H         -2.57367       13.56458        6.97439
H         -0.23802       11.14270        4.47677
H         -2.68725       10.87430        3.71210
H         -6.69688       10.49875        5.73540
C         -6.21811        9.67053        6.24071
H         -4.43511        9.41418        5.08715
N         -5.04434        9.12737        5.88410
C         -6.68608        8.99216        7.34379
C         -4.81620        8.13753        6.76571
H         -7.60843        9.18779        7.87375
N         -5.80521        8.02765        7.67553
H         -3.94067        7.50246        6.74844
H         -4.45295       11.84757        8.00825
C         -4.17766       11.10860        8.74811
H         -2.26722       10.44998        8.04178
N         -3.03943       10.39795        8.74217
C         -4.91561       10.72725        9.84571
C         -3.10019        9.60335        9.82570
H         -5.88483       11.11237       10.13223
N         -4.23936        9.78030       10.52481
H         -2.32626        8.90233       10.10609
H         -1.36181        7.50756        7.52958
C         -0.43836        7.89911        7.93473
H          0.17865        9.26687        6.40863
N          0.34070        8.81100        7.33317
C          0.14393        7.56460        9.13674
C          1.37475        9.01644        8.16827
H         -0.23785        6.85601        9.85936
N          1.28451        8.26668        9.28535
H          2.18615        9.70351        7.96782
$end

$rem
BASIS = mixed
METHOD  = BLYP
JOBTYPE = OPT
MAX_SCF_CYCLES = 500
SCF_ALGORITHM = DIIS_GDM
$end

$BASIS
Fe 1
VDZ
****
N 2
6-31G
****
C 3
6-31G
****
N 4
6-31G
****
C 5
6-31G
****
C 6
6-31G
****
H 7
STO-3G
****
H 8
STO-3G
****
H 9
STO-3G
****
H 10
STO-3G
****
H 11
STO-3G
****
C 12
6-31G
****
H 13
STO-3G
****
N 14
6-31G
****
C 15
6-31G
****
C 16
6-31G
****
H 17
STO-3G
****
N 18
6-31G
****
H 19
STO-3G
****
H 20
STO-3G
****
C 21
6-31G
****
H 22
STO-3G
****
N 23
6-31G
****
C 24
6-31G
****
C 25
6-31G
****
H 26
STO-3G
****
N 27
6-31G
****
H 28
STO-3G
****
H 29
STO-3G
****
C 30
6-31G
****
H 31
STO-3G
****
N 32
6-31G
****
C 33
6-31G
****
C 34
6-31G
****
H 35
STO-3G
****
N 36
6-31G
****
H 37
STO-3G
****
--------------------------------------------------------------
 ----------------------------------------------------------------
             Standard Nuclear Orientation (Angstroms)
    I     Atom           X                Y                Z
 ----------------------------------------------------------------
    1      Fe     -2.0218800000     8.6739200000     5.2969900000
    2      N      -1.0058600000    12.4903400000     5.9623300000
    3      C      -1.0910100000    11.6386300000     4.9206100000
    4      N      -2.3575800000    11.4771900000     4.4978800000
    5      C      -3.1096600000    12.2508200000     5.2952900000
    6      C      -2.2759700000    12.8750300000     6.1960400000
    7      H      -4.1847100000    12.3523600000     5.2261900000
    8      H      -2.5736700000    13.5645800000     6.9743900000
    9      H      -0.2380200000    11.1427000000     4.4767700000
   10      H      -2.6872500000    10.8743000000     3.7121000000
   11      H      -6.6968800000    10.4987500000     5.7354000000
   12      C      -6.2181100000     9.6705300000     6.2407100000
   13      H      -4.4351100000     9.4141800000     5.0871500000
   14      N      -5.0443400000     9.1273700000     5.8841000000
   15      C      -6.6860800000     8.9921600000     7.3437900000
   16      C      -4.8162000000     8.1375300000     6.7657100000
   17      H      -7.6084300000     9.1877900000     7.8737500000
   18      N      -5.8052100000     8.0276500000     7.6755300000
   19      H      -3.9406700000     7.5024600000     6.7484400000
   20      H      -4.4529500000    11.8475700000     8.0082500000
   21      C      -4.1776600000    11.1086000000     8.7481100000
   22      H      -2.2672200000    10.4499800000     8.0417800000
   23      N      -3.0394300000    10.3979500000     8.7421700000
   24      C      -4.9156100000    10.7272500000     9.8457100000
   25      C      -3.1001900000     9.6033500000     9.8257000000
   26      H      -5.8848300000    11.1123700000    10.1322300000
   27      N      -4.2393600000     9.7803000000    10.5248100000
   28      H      -2.3262600000     8.9023300000    10.1060900000
   29      H      -1.3618100000     7.5075600000     7.5295800000
   30      C      -0.4383600000     7.8991100000     7.9347300000
   31      H       0.1786500000     9.2668700000     6.4086300000
   32      N       0.3407000000     8.8110000000     7.3331700000
   33      C       0.1439300000     7.5646000000     9.1367400000
   34      C       1.3747500000     9.0164400000     8.1682700000
   35      H      -0.2378500000     6.8560100000     9.8593600000
   36      N       1.2845100000     8.2666800000     9.2853500000
   37      H       2.1861500000     9.7035100000     7.9678200000
 ----------------------------------------------------------------
 Nuclear Repulsion Energy =  1965.3852974557 hartrees
 There are       85 alpha and       82 beta electrons

 Q-Chem warning in module forms1/BasisType.C, line 1703:

 Setting pure/cartesian flag to 2111 for general basis


 Requested basis set is non-standard
 There are 85 shells and 217 basis functions

 Total QAlloc Memory Limit   2000 MB
 Mega-Array Size       188 MB
 MEM_STATIC part       192 MB
 A cutoff of  1.0D-12 yielded   2799 shell pairs
 There are     19720 function pairs (     20101 Cartesian)
 
 -------------------------------------------------------
 OpenMP Integral Computing Module                       
 Release: version 1.0, May 2013, Q-Chem Inc. Pittsburgh 
 -------------------------------------------------------
 Integral Job Info:
 Integral job number is                      11
 Integral operator is                         1
 short-range coefficients                     0
 long-range coefficients              100000000
 Omega coefficients                           0
 if combine SR and LR in K                    0
 Integral screening is                        0
 Integral computing path is                   2
 max size of driver memory is            800000
 size of driver memory is                593474
 size of scratch memory is             29634545
 max col of scratch BK array               1296
 max len of scratch array in speh3          155
 max len of scratch index in speh4           18
 max int batch size is                      520
 min int batch size is                       52
 fixed nKL is                                45
 max L of basis functions is                  2
 order of int derivative is                   0
 number of shells is                         85
 number of basis is                         219
 number of cartesian basis is               219
 number of contracted shell pairs          2799
 number of primitive shell pairs          13878
 maxK2 (contraction) of shell pair           36
 max number of K2 of shell pair               1
 max number of CS2 of shell pair            448
 max number of PS2 of shell pair           2322
 mem total for path MDJ                  582482
 -------------------------------------------------------
 Smallest overlap matrix eigenvalue = 3.55E-03

 Scale SEOQF with 1.000000e-02/1.000000e-02/1.000000e-02

 Standard Electronic Orientation quadrupole field applied
 Nucleus-field energy     =     0.0000000262 hartrees
 Guess MOs from core Hamiltonian diagonalization

 -----------------------------------------------------------------------
  General SCF calculation program by
  Eric Jon Sundstrom, Paul Horn, Yuezhi Mao, Dmitri Zuev, Alec White,
  David Stuck, Shaama M.S., Shane Yost, Joonho Lee, David Small,
  Daniel Levine, Susi Lehtola, Hugh Burton, Evgeny Epifanovsky
 -----------------------------------------------------------------------
 Exchange:  B88      Correlation:  LYP
 Using SG-1 standard quadrature grid
 using 12 threads for integral computing
 -------------------------------------------------------
 OpenMP Integral computing Module                
 Release: version 1.0, May 2013, Q-Chem Inc. Pittsburgh 
 -------------------------------------------------------
 -------------------------------------------------------
 OpenMP BLAS3 based DFT computing Module                
 Release: version 1.0, May 2013, Q-Chem Inc. Pittsburgh 
 -------------------------------------------------------
 A unrestricted SCF calculation will be
 performed using DIIS, GDM
 SCF converges when RMS gradient is below 1.0e-08
 ---------------------------------------
  Cycle       Energy         DIIS error
 ---------------------------------------
    1   -1973.4105637793      3.67e-02  
    2   -1671.3372192577      4.36e-02  
    3   -1791.1000620381      5.62e-02  
    4   -2117.0747947941      3.19e-02  
    5   -1962.5004184238      5.95e-02  
    6   -2063.4795290395      4.03e-02  
    7   -2105.3738699625      3.18e-02  
    8   -2119.3141260822      2.69e-02  
    9   -2136.0696769302      2.18e-02  
   10   -2060.2855291502      3.36e-02  
   11   -2151.5400258854      1.90e-02  
   12   -2154.8225276373      1.68e-02  
   13   -2153.4354774540      1.72e-02  
   14   -2150.4249636975      1.69e-02  
   15   -2158.4849803147      1.43e-02  
   16   -2158.7116937433      1.08e-02  
   17   -2148.9416225179      2.09e-02  
   18   -2147.0415829792      2.02e-02  
   19   -2154.8511286336      1.74e-02  
   20   -2155.8201789824      1.68e-02  
   21   -2155.0338330151      1.71e-02  
   22   -2155.5508934498      1.71e-02  
   23   -2155.9453594958      1.68e-02  
   24   -2155.9574741012      1.68e-02  
   25   -2156.1288441016      1.68e-02  
   26   -2154.7603487718      1.72e-02  
   27   -2154.3983425932      1.81e-02  
   28   -2155.8668633797      1.70e-02  
   29   -2156.0122549135      1.69e-02  
   30   -2154.0079907890      1.75e-02  
   31   -2154.8971151715      1.72e-02  
   32   -2045.2758746051      2.23e-02  
   33   -2088.8714416121      2.92e-02  
   34   -2151.3769882283      1.79e-02  
   35   -2149.8419593195      1.86e-02  
   36   -2151.6303014981      1.78e-02  
   37   -2151.2156624478      1.81e-02  
   38   -2151.4212159383      1.81e-02  
   39   -2151.4628903639      1.81e-02  
   40   -2151.3483716997      1.80e-02  
   41   -2152.8733388714      1.75e-02  
   42   -2151.4193042505      1.81e-02  
   43   -2149.8024587703      1.87e-02  
   44   -2150.0237980536      1.87e-02  
   45   -2151.5322017498      1.82e-02  
   46   -2152.8105038929      1.76e-02  
   47   -2152.6632795409      1.77e-02  
   48   -1992.4775182175      4.03e-02  
   49   -2140.2993316162      1.91e-02  
   50   -2146.7058583908      2.31e-02  
 ---------------------------------------
  Cycle       Energy        RMS Gradient
 ---------------------------------------
    1   -2149.9728192411      1.30e+00   Descent step
    2   -2152.2500468321      1.46e+00   Descent step
    3   -2154.2697421045      1.75e+00   Descent step
    4   -2156.4061953062      5.07e+00   Descent step
    5   -2159.3920633624      7.04e-01   Descent step
    6   -2160.3133948129      3.36e-01   Descent step
    7   -2160.9774471081      2.81e-01   Descent step
    8   -2161.5484016128      3.42e-01   Descent step
    9   -2162.0588275238      2.64e-01   Descent step
   10   -2162.4573196501      1.98e-01   Descent step
   11   -2162.7876036482      3.09e-01   Descent step
   12   -2163.1122486593      2.80e-01   Descent step
   13   -2163.4625088962      3.07e-01   Descent step
   14   -2163.7266251818      3.08e-01   Descent step
   15   -2163.9239351494      2.56e-01   Descent step
   16   -2163.9794160836      5.16e-01   Descent step
   17   -2164.1836208301      4.84e-01   Descent step
   18   -2164.2388673373      4.12e-01   Descent step
   19   -2164.4682586258      5.10e-01   Descent step
   20   -2164.4604758460      3.17e-01  Line search: overstep
   21   -2164.6296998805      3.30e-01   Descent step
   22   -2164.9696947187      3.27e-01   Descent step
   23   -2164.9496698050      4.66e-01  Line search: overstep
   24   -2165.0814455145      3.79e-01   Descent step
   25   -2165.2214350256      3.15e-01   Descent step
   26   -2165.1265719181      2.36e-01  Line search: overstep
   27   -2165.3598668083      2.01e-01   Descent step
   28   -2165.5564506231      3.77e-01   Descent step
   29   -2165.3498743987      3.11e-01  Line search: overstep
   30   -2165.6259494853      2.75e-01   Descent step
   31   -2165.4651689204      4.80e-01  Line search: overstep
   32   -2165.6754963730      1.98e-01   Descent step
   33   -2165.6140604144      3.76e-01  Line search: overstep
   34   -2165.7274680060      4.55e-01   Descent step
   35   -2165.2631569358      6.71e-01  Line search: overstep
   36   -2165.7720719610      2.11e-01   Descent step
   37   -2165.9675708048      6.08e-01   Descent step
   38   -2165.6185334202      8.71e-01  Line search: overstep
   39   -2166.0041783663      1.79e-01   Descent step
   40   -2165.9468627230      1.14e+00  Line search: overstep
   41   -2166.0442211237      5.38e-01   Descent step
   42   -2165.7339533595      8.42e-01  Line search: overstep
   43   -2166.0891006502      1.56e-01   Descent step
   44   -2166.0587864848      1.03e+00  Line search: overstep
   45   -2166.1288032819      5.71e-01   Descent step
   46   -2165.8868218787      7.23e-01  Line search: overstep
   47   -2166.1703773647      1.70e-01   Descent step
   48   -2166.1557856271      7.42e-01  Line search: overstep
   49   -2166.2079737535      3.72e-01   Descent step
   50   -2166.0046843166      9.18e-01  Line search: overstep
   51   -2166.2412129140      1.65e-01   Descent step
   52   -2166.2788098649      4.06e-01   Descent step
   53   -2166.1723139834      9.30e-01  Line search: overstep
   54   -2166.3439348818      1.30e-01   Descent step
   55   -2166.3280420900      4.30e-01  Line search: overstep
   56   -2166.3704458269      3.05e-01   Descent step
   57   -2166.1650438861      8.66e-01  Line search: overstep
   58   -2166.3835631291      1.77e-01   Descent step
   59   -2166.1564885880      6.03e-01  Line search: overstep
   60   -2166.3943666842      1.61e-01   Dog-leg BFGS step
   61   -2166.4001890703      3.08e-01   Descent step
   62   -2166.2802045088      3.25e-01  Line search: overstep
   63   -2166.4389221312      6.23e-02   Normal BFGS step
   64   -2166.4428978250      9.97e-02   Dog-leg BFGS step
   65   -2166.4245494092      2.48e-01  Line search: overstep
   66   -2166.4511116316      1.10e-01   Normal BFGS step
   67   -2166.4157901771      1.86e-01  Line search: overstep
   68   -2166.4557091175      5.65e-02   Normal BFGS step
   69   -2166.4518765642      6.90e-02  Line search: overstep
   70   -2166.4589564830      4.92e-02   Normal BFGS step
   71   -2166.4586136280      5.20e-02  Line search: overstep
   72   -2166.4609812730      1.78e-02   Normal BFGS step
   73   -2166.4620589637      4.97e-02   Normal BFGS step
   74   -2166.4629705607      3.25e-02   Normal BFGS step
   75   -2166.4633278467      2.29e-02   Normal BFGS step
   76   -2166.4641054432      2.12e-02   Normal BFGS step
   77   -2166.4639274694      6.25e-02  Line search: overstep
   78   -2166.4645192324      2.10e-02   Normal BFGS step
   79   -2166.4648072088      1.84e-02   Normal BFGS step
   80   -2166.4650091560      1.84e-02   Normal BFGS step
   81   -2166.4652693401      1.09e-02   Normal BFGS step
   82   -2166.4654009167      1.09e-02   Normal BFGS step
   83   -2166.4655060840      5.54e-03   Normal BFGS step
   84   -2166.4655851903      5.46e-03   Normal BFGS step
   85   -2166.4656796255      4.23e-03   Normal BFGS step
   86   -2166.4657503941      3.24e-03   Normal BFGS step
   87   -2166.4658143294      3.90e-03   Normal BFGS step
   88   -2166.4658401851      3.20e-03   Normal BFGS step
   89   -2166.4658764928      3.75e-03   Normal BFGS step
   90   -2166.4658796718      5.76e-03   Normal BFGS step
   91   -2166.4659104221      3.55e-03   Normal BFGS step
   92   -2166.4658759584      7.44e-03  Line search: overstep
   93   -2166.4659264057      1.72e-03   Normal BFGS step
   94   -2166.4659385563      2.28e-03   Normal BFGS step
   95   -2166.4659440544      7.70e-03   Normal BFGS step
   96   -2166.4659539374      2.88e-03   Normal BFGS step
   97   -2166.4659738123      2.36e-03   Normal BFGS step
   98   -2166.4659538288      7.96e-03  Line search: overstep
   99   -2166.4659827450      1.61e-03   Normal BFGS step
  100   -2166.4659959302      2.51e-03   Normal BFGS step
  101   -2166.4660103030      7.18e-03   Normal BFGS step
  102   -2166.4660357099      3.62e-03   Normal BFGS step
  103   -2166.4660439447      2.84e-03   Normal BFGS step
  104   -2166.4660615469      3.49e-03   Normal BFGS step
  105   -2166.4660663327      1.99e-03   Normal BFGS step
  106   -2166.4660729873      2.83e-03   Normal BFGS step
  107   -2166.4660685841      2.15e-03  Line search: overstep
  108   -2166.4660775238      1.66e-03   Normal BFGS step
  109   -2166.4660813360      1.13e-03   Normal BFGS step
  110   -2166.4660821228      1.70e-03   Normal BFGS step
  111   -2166.4660847417      4.86e-04   Normal BFGS step
  112   -2166.4660844335      9.37e-04  Line search: overstep
  113   -2166.4660855623      4.29e-04   Normal BFGS step
  114   -2166.4660864829      5.13e-04   Normal BFGS step
  115   -2166.4660875097      7.90e-04   Normal BFGS step
  116   -2166.4660885228      1.16e-03   Normal BFGS step
  117   -2166.4660897998      8.17e-04   Normal BFGS step
  118   -2166.4660903697      5.82e-04   Normal BFGS step
  119   -2166.4660925103      3.86e-04   Normal BFGS step
  120   -2166.4660931626      3.75e-04   Normal BFGS step
  121   -2166.4660944675      3.36e-04   Normal BFGS step
  122   -2166.4660949044      3.33e-04   Normal BFGS step
  123   -2166.4660955492      2.82e-04   Normal BFGS step
  124   -2166.4660956805      2.54e-04   Normal BFGS step
  125   -2166.4660959865      3.52e-04   Normal BFGS step
  126   -2166.4660958225      8.07e-04  Line search: overstep
  127   -2166.4660961000      2.36e-04   Normal BFGS step
  128   -2166.4660960316      5.63e-04  Line search: overstep
  129   -2166.4660962067      1.91e-04   Normal BFGS step
  130   -2166.4660963758      1.12e-04   Normal BFGS step
  131   -2166.4660964975      2.24e-04   Normal BFGS step
  132   -2166.4660966917      2.00e-04   Normal BFGS step
  133   -2166.4660967244      4.77e-04   Normal BFGS step
  134   -2166.4660968871      4.33e-04   Normal BFGS step
  135   -2166.4660968891      3.11e-04   Normal BFGS step
  136   -2166.4660971246      3.27e-04   Normal BFGS step
  137   -2166.4660968315      9.06e-04  Line search: overstep
  138   -2166.4660972149      1.03e-04   Normal BFGS step
  139   -2166.4660972703      1.28e-04   Normal BFGS step
  140   -2166.4660974241      1.38e-04   Normal BFGS step
  141   -2166.4660975367      1.85e-04   Normal BFGS step
  142   -2166.4660976097      2.54e-04   Normal BFGS step
  143   -2166.4660976294      1.57e-04   Normal BFGS step
  144   -2166.4660977530      7.27e-05   Normal BFGS step
  145   -2166.4660977531      8.52e-05   Normal BFGS step
  146   -2166.4660978032      3.71e-05   Normal BFGS step
  147   -2166.4660978117      5.88e-05   Normal BFGS step
  148   -2166.4660978330      8.71e-05   Normal BFGS step
  149   -2166.4660977858      3.05e-04  Line search: overstep
  150   -2166.4660978402      3.14e-05   Normal BFGS step
  151   -2166.4660978444      4.79e-05   Normal BFGS step
  152   -2166.4660978526      2.39e-05   Normal BFGS step
  153   -2166.4660978579      1.79e-05   Normal BFGS step
  154   -2166.4660978602      2.06e-05   Normal BFGS step
  155   -2166.4660978631      2.90e-05   Normal BFGS step
  /scratch/qcdevops/jenkins/workspace/build_qchem_linux_distrib/tags/qc511/qchem/libgscf/libgscf/opt/gdm.C::WARNING energy changes are now smaller than effective accuracy.
  /scratch/qcdevops/jenkins/workspace/build_qchem_linux_distrib/tags/qc511/qchem/libgscf/libgscf/opt/gdm.C::        calculation will continue, but THRESH should be increased
  /scratch/qcdevops/jenkins/workspace/build_qchem_linux_distrib/tags/qc511/qchem/libgscf/libgscf/opt/gdm.C::        or SCF_CONVERGENCE decreased. 
  /scratch/qcdevops/jenkins/workspace/build_qchem_linux_distrib/tags/qc511/qchem/libgscf/libgscf/opt/gdm.C::        effective_thresh = 4.61e-09
  156   -2166.4660978612      1.21e-04   Normal BFGS step
  157   -2166.4660978651      2.63e-05   Normal BFGS step
  158   -2166.4660978629      6.76e-05   Normal BFGS step
  159   -2166.4660978661      3.81e-05   Normal BFGS step
  /scratch/qcdevops/jenkins/workspace/build_qchem_linux_distrib/tags/qc511/qchem/libgscf/libgscf/opt/gdm.C::WARNING energy changes are now smaller than effective accuracy.
  /scratch/qcdevops/jenkins/workspace/build_qchem_linux_distrib/tags/qc511/qchem/libgscf/libgscf/opt/gdm.C::        calculation will continue, but THRESH should be increased
  /scratch/qcdevops/jenkins/workspace/build_qchem_linux_distrib/tags/qc511/qchem/libgscf/libgscf/opt/gdm.C::        or SCF_CONVERGENCE decreased. 
  /scratch/qcdevops/jenkins/workspace/build_qchem_linux_distrib/tags/qc511/qchem/libgscf/libgscf/opt/gdm.C::        effective_thresh = 4.61e-09
  160   -2166.4660978628      4.03e-05   Normal BFGS step
  161   -2166.4660978674      1.34e-05   Normal BFGS step
  162   -2166.4660978664      3.62e-05   Normal BFGS step
  163   -2166.4660978681      7.47e-06   Normal BFGS step
  164   -2166.4660978676      1.91e-05   Normal BFGS step
  165   -2166.4660978685      9.15e-06   Normal BFGS step
  166   -2166.4660978683      1.10e-05   Normal BFGS step
  167   -2166.4660978689      4.70e-06   Normal BFGS step
  168   -2166.4660978690      6.62e-06   Normal BFGS step
  169   -2166.4660978691      1.47e-05   Normal BFGS step
  /scratch/qcdevops/jenkins/workspace/build_qchem_linux_distrib/tags/qc511/qchem/libgscf/libgscf/opt/gdm.C::WARNING energy changes are now smaller than effective accuracy.
  /scratch/qcdevops/jenkins/workspace/build_qchem_linux_distrib/tags/qc511/qchem/libgscf/libgscf/opt/gdm.C::        calculation will continue, but THRESH should be increased
  /scratch/qcdevops/jenkins/workspace/build_qchem_linux_distrib/tags/qc511/qchem/libgscf/libgscf/opt/gdm.C::        or SCF_CONVERGENCE decreased. 
  /scratch/qcdevops/jenkins/workspace/build_qchem_linux_distrib/tags/qc511/qchem/libgscf/libgscf/opt/gdm.C::        effective_thresh = 4.73e-09
  170   -2166.4660978687      2.51e-05   Normal BFGS step
  171   -2166.4660978692      3.68e-06   Normal BFGS step
  172   -2166.4660978691      6.49e-06   Normal BFGS step
  173   -2166.4660978693      2.17e-06   Normal BFGS step
  174   -2166.4660978693      2.85e-06   Normal BFGS step
  175   -2166.4660978694      1.86e-06   Normal BFGS step
  176   -2166.4660978694      9.69e-06   Normal BFGS step
  177   -2166.4660978694      9.30e-06   Normal BFGS step
  178   -2166.4660978694      3.63e-06   Normal BFGS step
  179   -2166.4660978694      7.27e-06   Normal BFGS step
  180   -2166.4660978694      7.56e-06   Normal BFGS step
  181   -2166.4660978694      1.64e-06   Normal BFGS step
  182   -2166.4660978694      1.96e-06   Normal BFGS step
  183   -2166.4660978694      2.02e-06   Normal BFGS step
  184   -2166.4660978695      2.02e-06   Normal BFGS step
  185   -2166.4660978694      1.91e-06   Normal BFGS step
  186   -2166.4660978695      6.36e-07   Normal BFGS step
  187   -2166.4660978695      1.10e-06   Normal BFGS step
  188   -2166.4660978695      3.81e-07   Normal BFGS step
  189   -2166.4660978695      5.92e-07   Normal BFGS step
  190   -2166.4660978695      2.74e-07   Normal BFGS step
  191   -2166.4660978695      6.16e-07   Normal BFGS step
  192   -2166.4660978695      2.00e-06   Normal BFGS step
  193   -2166.4660978695      4.23e-07   Normal BFGS step
  194   -2166.4660978695      3.62e-07   Normal BFGS step
  195   -2166.4660978695      3.67e-07   Normal BFGS step
  196   -2166.4660978695      1.76e-06   Normal BFGS step
  197   -2166.4660978695      2.38e-07   Normal BFGS step
  198   -2166.4660978695      5.66e-07   Normal BFGS step
  199   -2166.4660978695      2.27e-07   Normal BFGS step
  200   -2166.4660978695      1.14e-06   Normal BFGS step
  201   -2166.4660978695      3.46e-07   Normal BFGS step
  202   -2166.4660978695      3.94e-07   Normal BFGS step
  203   -2166.4660978695      3.26e-07   Normal BFGS step
  204   -2166.4660978695      3.81e-07   Normal BFGS step
  205   -2166.4660978695      4.01e-07   Normal BFGS step
  206   -2166.4660978695      3.59e-07   Normal BFGS step
  207   -2166.4660978695      1.26e-07   Normal BFGS step
  208   -2166.4660978695      1.63e-07   Normal BFGS step
  209   -2166.4660978695      5.96e-08   Normal BFGS step
  210   -2166.4660978695      9.81e-08   Normal BFGS step
  211   -2166.4660978695      7.23e-08   Normal BFGS step
  212   -2166.4660978695      3.02e-07   Normal BFGS step
  213   -2166.4660978695      1.21e-07   Normal BFGS step
  214   -2166.4660978695      9.46e-08   Normal BFGS step
  215   -2166.4660978695      1.27e-07   Normal BFGS step
  216   -2166.4660978695      5.15e-07   Normal BFGS step
  217   -2166.4660978695      6.22e-08   Normal BFGS step
  218   -2166.4660978695      8.35e-08   Normal BFGS step
  219   -2166.4660978695      6.48e-08   Normal BFGS step
  220   -2166.4660978695      7.39e-08   Normal BFGS step
  221   -2166.4660978695      7.76e-08   Normal BFGS step
  /scratch/qcdevops/jenkins/workspace/build_qchem_linux_distrib/tags/qc511/qchem/libgscf/libgscf/opt/gdm.C::WARNING energy changes are now smaller than effective accuracy.
  /scratch/qcdevops/jenkins/workspace/build_qchem_linux_distrib/tags/qc511/qchem/libgscf/libgscf/opt/gdm.C::        calculation will continue, but THRESH should be increased
  /scratch/qcdevops/jenkins/workspace/build_qchem_linux_distrib/tags/qc511/qchem/libgscf/libgscf/opt/gdm.C::        or SCF_CONVERGENCE decreased. 
  /scratch/qcdevops/jenkins/workspace/build_qchem_linux_distrib/tags/qc511/qchem/libgscf/libgscf/opt/gdm.C::        effective_thresh = 7.33e-09
  222   -2166.4660978695      2.19e-07   Normal BFGS step
  223   -2166.4660978695      1.24e-07   Normal BFGS step
  224   -2166.4660978695      1.39e-07   Normal BFGS step
  225   -2166.4660978695      6.67e-08   Normal BFGS step
  226   -2166.4660978695      1.31e-07   Normal BFGS step
  227   -2166.4660978695      3.32e-08   Normal BFGS step
  228   -2166.4660978695      6.11e-08   Normal BFGS step
  229   -2166.4660978695      3.12e-08   Normal BFGS step
  230   -2166.4660978695      2.85e-08   Normal BFGS step
  /scratch/qcdevops/jenkins/workspace/build_qchem_linux_distrib/tags/qc511/qchem/libgscf/libgscf/opt/gdm.C::WARNING energy changes are now smaller than effective accuracy.
  /scratch/qcdevops/jenkins/workspace/build_qchem_linux_distrib/tags/qc511/qchem/libgscf/libgscf/opt/gdm.C::        calculation will continue, but THRESH should be increased
  /scratch/qcdevops/jenkins/workspace/build_qchem_linux_distrib/tags/qc511/qchem/libgscf/libgscf/opt/gdm.C::        or SCF_CONVERGENCE decreased. 
  /scratch/qcdevops/jenkins/workspace/build_qchem_linux_distrib/tags/qc511/qchem/libgscf/libgscf/opt/gdm.C::        effective_thresh = 7.33e-09
  231   -2166.4660978695      3.30e-08   Normal BFGS step
  232   -2166.4660978695      3.44e-08   Normal BFGS step
  233   -2166.4660978695      4.80e-08   Normal BFGS step
  234   -2166.4660978695      4.77e-08   Normal BFGS step
  235   -2166.4660978695      6.45e-08   Normal BFGS step
  /scratch/qcdevops/jenkins/workspace/build_qchem_linux_distrib/tags/qc511/qchem/libgscf/libgscf/opt/gdm.C::WARNING energy changes are now smaller than effective accuracy.
  /scratch/qcdevops/jenkins/workspace/build_qchem_linux_distrib/tags/qc511/qchem/libgscf/libgscf/opt/gdm.C::        calculation will continue, but THRESH should be increased
  /scratch/qcdevops/jenkins/workspace/build_qchem_linux_distrib/tags/qc511/qchem/libgscf/libgscf/opt/gdm.C::        or SCF_CONVERGENCE decreased. 
  /scratch/qcdevops/jenkins/workspace/build_qchem_linux_distrib/tags/qc511/qchem/libgscf/libgscf/opt/gdm.C::        effective_thresh = 7.33e-09
  236   -2166.4660978695      2.40e-07   Normal BFGS step
  237   -2166.4660978695      4.18e-08   Normal BFGS step
  238   -2166.4660978695      1.05e-07   Normal BFGS step
  239   -2166.4660978695      9.07e-09  Convergence criterion met
 ---------------------------------------
 SCF time:   CPU 5326.77s  wall 445.00s 
<S^2> =          5.014028645
 SCF   energy in the final basis set =    -2166.4660978695
 Total energy in the final basis set =    -2166.4660978695
 
 --------------------------------------------------------------
 
                    Orbital Energies (a.u.)
 --------------------------------------------------------------
 
 Alpha MOs
 -- Occupied --
******* -29.999 -25.958 -25.955 -25.945 -14.519 -14.518 -14.516
-14.510 -14.439 -14.434 -14.428 -14.422 -10.407 -10.403 -10.399
-10.391 -10.385 -10.383 -10.375 -10.368 -10.352 -10.350 -10.348
-10.346  -3.771  -2.601  -2.596  -2.573  -1.379  -1.377  -1.377
 -1.374  -1.229  -1.228  -1.226  -1.225  -1.096  -1.094  -1.093
 -1.092  -0.991  -0.986  -0.984  -0.983  -0.953  -0.952  -0.952
 -0.950  -0.927  -0.922  -0.920  -0.917  -0.820  -0.819  -0.816
 -0.814  -0.811  -0.809  -0.809  -0.803  -0.801  -0.799  -0.796
 -0.794  -0.768  -0.767  -0.766  -0.760  -0.713  -0.705  -0.703
 -0.695  -0.672  -0.669  -0.666  -0.663  -0.660  -0.628  -0.618
 -0.616  -0.612  -0.609  -0.605  -0.602
 -- Virtual --
 -0.598  -0.595  -0.422  -0.418  -0.416  -0.409  -0.375  -0.373
 -0.367  -0.357  -0.336  -0.277  -0.265  -0.253  -0.245  -0.219
 -0.213  -0.208  -0.201  -0.199  -0.198  -0.197  -0.194  -0.184
 -0.179  -0.170  -0.166  -0.158  -0.146  -0.126  -0.120  -0.090
 -0.084  -0.074  -0.072  -0.057  -0.046  -0.044  -0.036  -0.032
 -0.011  -0.006   0.002   0.006   0.049   0.055   0.074   0.083
  0.086   0.087   0.102   0.114   0.121   0.131   0.136   0.138
  0.143   0.154   0.158   0.167   0.173   0.178   0.185   0.196
  0.198   0.199   0.202   0.208   0.220   0.226   0.228   0.230
  0.233   0.241   0.245   0.251   0.259   0.265   0.274   0.284
  0.291   0.301   0.312   0.323   0.332   0.348   0.364   0.386
  0.392   0.400   0.409   0.428   0.447   0.458   0.463   0.470
  0.470   0.476   0.482   0.506   0.514   0.524   0.539   0.571
  0.594   0.603   0.612   0.620   0.636   0.644   0.650   0.719
  0.762   0.768   0.776   0.809   0.827   0.835   0.849   0.870
  0.887   0.903   0.916   0.941   1.124   1.130   1.162   1.166
  1.174   1.184   1.193   1.202
 
 Beta MOs
 -- Occupied --
******* -29.945 -25.914 -25.913 -25.907 -14.518 -14.517 -14.515
-14.510 -14.442 -14.431 -14.429 -14.422 -10.409 -10.406 -10.399
-10.389 -10.386 -10.382 -10.379 -10.369 -10.354 -10.350 -10.349
-10.346  -3.640  -2.467  -2.465  -2.454  -1.381  -1.380  -1.377
 -1.373  -1.229  -1.228  -1.227  -1.225  -1.102  -1.101  -1.093
 -1.089  -0.992  -0.987  -0.984  -0.983  -0.956  -0.955  -0.951
 -0.951  -0.929  -0.925  -0.919  -0.919  -0.826  -0.821  -0.817
 -0.813  -0.812  -0.809  -0.808  -0.805  -0.802  -0.800  -0.798
 -0.795  -0.770  -0.768  -0.767  -0.760  -0.673  -0.669  -0.664
 -0.662  -0.632  -0.630  -0.621  -0.618  -0.611  -0.606  -0.604
 -0.603  -0.603
 -- Virtual --
 -0.601  -0.577  -0.574  -0.565  -0.564  -0.429  -0.424  -0.422
 -0.407  -0.381  -0.372  -0.369  -0.368  -0.330  -0.277  -0.266
 -0.254  -0.244  -0.220  -0.215  -0.209  -0.202  -0.201  -0.200
 -0.197  -0.197  -0.186  -0.178  -0.171  -0.166  -0.161  -0.147
 -0.129  -0.119  -0.092  -0.084  -0.075  -0.073  -0.058  -0.047
 -0.043  -0.037  -0.035  -0.013  -0.006  -0.001   0.006   0.044
  0.051   0.073   0.080   0.085   0.087   0.103   0.115   0.118
  0.125   0.135   0.137   0.144   0.150   0.158   0.166   0.172
  0.177   0.185   0.196   0.197   0.200   0.203   0.208   0.217
  0.224   0.227   0.228   0.231   0.242   0.245   0.255   0.260
  0.264   0.275   0.282   0.290   0.302   0.313   0.320   0.332
  0.349   0.362   0.386   0.397   0.404   0.425   0.433   0.459
  0.462   0.465   0.472   0.476   0.483   0.510   0.525   0.544
  0.560   0.574   0.576   0.599   0.601   0.620   0.629   0.640
  0.651   0.663   0.716   0.762   0.769   0.776   0.810   0.827
  0.835   0.849   0.873   0.886   0.904   0.919   0.939   1.123
  1.129   1.161   1.165   1.173   1.183   1.192   1.203
 --------------------------------------------------------------
 
          Ground-State Mulliken Net Atomic Charges

     Atom                 Charge (a.u.)    Spin (a.u.)
  --------------------------------------------------------
      1 Fe                    0.719097       3.826939
      2 N                    -0.222026      -0.012594
      3 C                     0.208013      -0.038242
      4 N                    -0.437579       0.015433
      5 C                     0.152800      -0.026774
      6 C                     0.091020      -0.015105
      7 H                     0.122598       0.000493
      8 H                     0.129115       0.000396
      9 H                     0.130983       0.001862
     10 H                     0.228112      -0.000966
     11 H                     0.135119       0.008153
     12 C                     0.225139      -0.232179
     13 H                     0.190021      -0.000461
     14 N                    -0.431243       0.034983
     15 C                     0.142596      -0.112069
     16 C                     0.248396      -0.160628
     17 H                     0.139317       0.005035
     18 N                    -0.210724      -0.046365
     19 H                     0.102513       0.004933
     20 H                     0.120256       0.010077
     21 C                     0.197154      -0.253925
     22 H                     0.207641      -0.000265
     23 N                    -0.427205       0.041998
     24 C                     0.161274      -0.141733
     25 C                     0.358748      -0.259070
     26 H                     0.138801       0.007904
     27 N                    -0.177761       0.184325
     28 H                     0.129310       0.011578
     29 H                     0.096803      -0.008058
     30 C                     0.089253       0.175951
     31 H                     0.199708       0.000140
     32 N                    -0.427337      -0.024829
     33 C                     0.147040       0.079112
     34 C                     0.402050       0.152662
     35 H                     0.137983      -0.006487
     36 N                    -0.164354      -0.214743
     37 H                     0.147370      -0.007483
  --------------------------------------------------------
  Sum of atomic charges =     3.000000
  Sum of spin   charges =     3.000000

 -----------------------------------------------------------------
                    Cartesian Multipole Moments
 -----------------------------------------------------------------
    Charge (ESU x 10^10)
                14.4096
    Dipole Moment (Debye)
         X     -39.4836      Y     140.2084      Z      95.4920
       Tot     174.1726
    Quadrupole Moments (Debye-Ang)
        XX      70.0502     XY    -408.3640     YY    1273.8137
        XZ    -261.0967     YZ     926.7532     ZZ     560.3360
    Octopole Moments (Debye-Ang^2)
       XXX     -40.1941    XXY     806.6649    XYY   -3966.3312
       YYY   10636.1106    XXZ     436.3273    XYZ   -2737.6254
       YYZ    8332.4855    XZZ   -1527.3670    YZZ    5424.2474
       ZZZ    2527.9345
    Hexadecapole Moments (Debye-Ang^3)
      XXXX   -2980.2940   XXXY    -870.2172   XXYY    7427.2447
      XYYY  -36198.5404   YYYY   76127.2393   XXXZ    -121.2765
      XXYZ    5404.4136   XYYZ  -26737.3512   YYYZ   68255.3268
      XXZZ    1197.8080   XYZZ  -16521.4520   YYZZ   47058.7788
      XZZZ   -6895.5920   YZZZ   24639.7414   ZZZZ     248.2701
 -----------------------------------------------------------------
 Calculating analytic gradient of the SCF energy
 Gradient of SCF Energy
            1           2           3           4           5           6
    1  -0.0094807  -0.0379845  -0.0763978   0.0432666   0.0678931   0.0150541
    2   0.0011372   0.0132872   0.0148561   0.0395201  -0.0179939  -0.0219365
    3   0.0046533  -0.0032820  -0.0129858   0.0318406  -0.0020341  -0.0183332
            7           8           9          10          11          12
    1   0.0050453  -0.0027940  -0.0068920  -0.0040202   0.0016638   0.0367152
    2  -0.0007161  -0.0065921  -0.0043155  -0.0186170  -0.0033172  -0.0583549
    3   0.0068330  -0.0040373   0.0092988   0.0034530   0.0075224   0.0266244
           13          14          15          16          17          18
    1   0.0152605  -0.0293246   0.0302219  -0.0209771   0.0063939  -0.0242555
    2   0.0055750  -0.0187773  -0.0046642   0.0476505   0.0035974   0.0254459
    3  -0.0050562   0.0414563  -0.0260966  -0.0316774  -0.0036864  -0.0091126
           19          20          21          22          23          24
    1  -0.0020936  -0.0027284   0.0206315   0.0080605  -0.0327372   0.0380081
    2   0.0089179  -0.0047301  -0.0513279  -0.0047769  -0.0048611  -0.0063902
    3   0.0011405   0.0031752   0.0468654  -0.0146414   0.0449268  -0.0252264
           25          26          27          28          29          30
    1  -0.0192325   0.0052824  -0.0060011  -0.0048603   0.0034823   0.0577277
    2   0.0477658  -0.0009100   0.0143613   0.0026195   0.0072251   0.0280912
    3  -0.0456547  -0.0057612  -0.0119344  -0.0034968   0.0051275   0.0102942
           31          32          33          34          35          36
    1  -0.0102160   0.0019807   0.0136530  -0.0651703  -0.0018484  -0.0081507
    2   0.0047555  -0.0256611   0.0295455  -0.0337768   0.0053347  -0.0077544
    3  -0.0104997   0.0408002  -0.0376933  -0.0147303  -0.0058753   0.0067478
           37
    1  -0.0051756
    2  -0.0042130
    3   0.0010554
 Max gradient component =       7.640E-02
 RMS gradient           =       2.437E-02
 Gradient time:  CPU 37.67 s  wall 3.32 s
 Geometry Optimization Parameters
   NAtoms,    NIC,     NZ,  NCons,   NDum,   NFix, NCnnct, MaxDiis
       37     310       0       0       0       0       0       0


** GEOMETRY OPTIMIZATION IN DELOCALIZED INTERNAL COORDINATES **
   Searching for a Minimum

   Optimization Cycle:   1

                       Coordinates (Angstroms)
     ATOM                X               Y               Z
      1  Fe       -2.0218800000    8.6739200000    5.2969900000
      2  N        -1.0058600000   12.4903400000    5.9623300000
      3  C        -1.0910100000   11.6386300000    4.9206100000
      4  N        -2.3575800000   11.4771900000    4.4978800000
      5  C        -3.1096600000   12.2508200000    5.2952900000
      6  C        -2.2759700000   12.8750300000    6.1960400000
      7  H        -4.1847100000   12.3523600000    5.2261900000
      8  H        -2.5736700000   13.5645800000    6.9743900000
      9  H        -0.2380200000   11.1427000000    4.4767700000
     10  H        -2.6872500000   10.8743000000    3.7121000000
     11  H        -6.6968800000   10.4987500000    5.7354000000
     12  C        -6.2181100000    9.6705300000    6.2407100000
     13  H        -4.4351100000    9.4141800000    5.0871500000
     14  N        -5.0443400000    9.1273700000    5.8841000000
     15  C        -6.6860800000    8.9921600000    7.3437900000
     16  C        -4.8162000000    8.1375300000    6.7657100000
     17  H        -7.6084300000    9.1877900000    7.8737500000
     18  N        -5.8052100000    8.0276500000    7.6755300000
     19  H        -3.9406700000    7.5024600000    6.7484400000
     20  H        -4.4529500000   11.8475700000    8.0082500000
     21  C        -4.1776600000   11.1086000000    8.7481100000
     22  H        -2.2672200000   10.4499800000    8.0417800000
     23  N        -3.0394300000   10.3979500000    8.7421700000
     24  C        -4.9156100000   10.7272500000    9.8457100000
     25  C        -3.1001900000    9.6033500000    9.8257000000
     26  H        -5.8848300000   11.1123700000   10.1322300000
     27  N        -4.2393600000    9.7803000000   10.5248100000
     28  H        -2.3262600000    8.9023300000   10.1060900000
     29  H        -1.3618100000    7.5075600000    7.5295800000
     30  C        -0.4383600000    7.8991100000    7.9347300000
     31  H         0.1786500000    9.2668700000    6.4086300000
     32  N         0.3407000000    8.8110000000    7.3331700000
     33  C         0.1439300000    7.5646000000    9.1367400000
     34  C         1.3747500000    9.0164400000    8.1682700000
     35  H        -0.2378500000    6.8560100000    9.8593600000
     36  N         1.2845100000    8.2666800000    9.2853500000
     37  H         2.1861500000    9.7035100000    7.9678200000
   Point Group: c1    Number of degrees of freedom:   105


   Energy is  -2166.466097869


 Attempting to Generate Delocalized Internal Coordinates

105 Hessian modes will be used to form the next step
  Hessian Eigenvalues:
     0.002000    0.002203    0.002245    0.004396    0.005903    0.006754
     0.007841    0.008370    0.010795    0.011700    0.012313    0.012815
     0.013610    0.014361    0.016107    0.016946    0.017559    0.018569
     0.018684    0.019247    0.019726    0.020941    0.022754    0.022775
     0.022818    0.023135    0.023272    0.023725    0.023789    0.024110
     0.024148    0.024454    0.024553    0.024671    0.024672    0.024735
     0.026012    0.030605    0.034421    0.041165    0.048097    0.048867
     0.063867    0.083808    0.089836    0.099992    0.121334    0.132022
     0.149064    0.159999    0.160000    0.160000    0.160000    0.160000
     0.160000    0.160000    0.160000    0.160000    0.160000    0.160000
     0.160000    0.211659    0.213206    0.217412    0.220000    0.225201
     0.226484    0.226929    0.229008    0.299730    0.325095    0.334943
     0.343138    0.357486    0.357598    0.357658    0.357919    0.357976
     0.358017    0.358050    0.358352    0.358485    0.373287    0.388891
     0.407449    0.430393    0.435479    0.443315    0.446357    0.464419
     0.482184    0.486749    0.494167    0.512687    0.521770    0.526756
     0.529349    0.538073    0.546600    0.548920    0.557826    0.557976
     0.562797    0.562917    0.562992

 Minimum Search - Taking Simple RFO Step
 Searching for Lamda that Minimizes Along All modes
 Value Taken    Lamda =  -0.16343597
 Calculated Step too Large.  Step scaled by  0.414387
 Step Taken.  Stepsize is  0.300000

                             Maximum     Tolerance    Cnvgd?
         Gradient           0.141104      0.000300      NO
         Displacement       0.237421      0.001200      NO
         Energy change     *********      0.000001      NO


 New Cartesian Coordinates Obtained by Inverse Iteration

 Displacement from previous Coordinates is:  6.463960
 ----------------------------------------------------------------
             Standard Nuclear Orientation (Angstroms)
    I     Atom           X                Y                Z
 ----------------------------------------------------------------
    1      Fe     -1.8810434681     8.6133058062     5.0523679297
    2      N      -0.9929598980    12.4766734221     6.0244579125
    3      C      -1.0618784123    11.6578180351     4.9514973796
    4      N      -2.3494131863    11.5207523807     4.5128946228
    5      C      -3.1209723685    12.2879292185     5.3266242041
    6      C      -2.2731028374    12.8898929805     6.2523559098
    7      H      -4.1932733613    12.4157662827     5.2282731755
    8      H      -2.5458183185    13.6129508479     7.0222152519
    9      H      -0.1995324262    11.1928434383     4.4797802862
   10      H      -2.6621144239    10.9581272451     3.6945044444
   11      H      -6.6533826385    10.2235572228     5.6958504194
   12      C      -6.1361461098     9.3647995755     6.1102205391
   13      H      -4.3398523589     9.2939021985     4.9288547540
   14      N      -4.9304872707     8.9012312948     5.6910853131
   15      C      -6.5591199489     8.5332683453     7.1452708240
   16      C      -4.6454000117     7.8147646260     6.4630776929
   17      H      -7.4844346162     8.6174091908     7.7043687445
   18      N      -5.6229511892     7.5688254045     7.3595062540
   19      H      -3.7454646295     7.2164950923     6.3717736212
   20      H      -4.5970106432    12.2532679916     8.2542337104
   21      C      -4.4338044251    11.6253552045     9.1221715088
   22      H      -2.5462034760    10.6967151950     8.7035081497
   23      N      -3.3613746751    10.8229786340     9.3333348776
   24      C      -5.2742686879    11.4930140186    10.2269593034
   25      C      -3.5594241352    10.2223380747    10.5412752151
   26      H      -6.2211799180    11.9975658798    10.3837474181
   27      N      -4.7234531849    10.6156043306    11.1043283515
   28      H      -2.8707677373     9.5211257354    10.9980045478
   29      H      -1.1605817593     7.2263833295     7.1398135238
   30      C      -0.2446951049     7.6033585967     7.5846923373
   31      H       0.3156734306     9.1600358761     6.2151183694
   32      N       0.5094353152     8.6171225183     7.0805060691
   33      C       0.3760440676     7.1588672983     8.7464935798
   34      C       1.5646381699     8.7781285727     7.9236174769
   35      H       0.0425252575     6.3589803590     9.3985302474
   36      N       1.4999089843     7.8961208355     8.9467240819
   37      H       2.3524059956     9.5124949417     7.7936319536
 ----------------------------------------------------------------
 Nuclear Repulsion Energy =  1866.7641262757 hartrees
 There are       85 alpha and       82 beta electrons
 Nucleus-field energy     =     0.0000000267 hartrees
 Requested basis set is non-standard
 There are 85 shells and 217 basis functions
 A cutoff of  1.0D-12 yielded   2637 shell pairs
 There are     18518 function pairs (     18880 Cartesian)
 Smallest overlap matrix eigenvalue = 3.95E-03
 Guess MOs from SCF MO coefficient file

 -----------------------------------------------------------------------
  General SCF calculation program by
  Eric Jon Sundstrom, Paul Horn, Yuezhi Mao, Dmitri Zuev, Alec White,
  David Stuck, Shaama M.S., Shane Yost, Joonho Lee, David Small,
  Daniel Levine, Susi Lehtola, Hugh Burton, Evgeny Epifanovsky
 -----------------------------------------------------------------------
 Exchange:  B88      Correlation:  LYP
 Using SG-1 standard quadrature grid
 using 12 threads for integral computing
 -------------------------------------------------------
 OpenMP Integral computing Module                
 Release: version 1.0, May 2013, Q-Chem Inc. Pittsburgh 
 -------------------------------------------------------
 -------------------------------------------------------
 OpenMP BLAS3 based DFT computing Module                
 Release: version 1.0, May 2013, Q-Chem Inc. Pittsburgh 
 -------------------------------------------------------
 A unrestricted SCF calculation will be
 performed using DIIS, GDM
 SCF converges when RMS gradient is below 1.0e-08
 ---------------------------------------
  Cycle       Energy         DIIS error
 ---------------------------------------
    1   -2166.4014651922      1.52e-03  
    2   -2166.1740607705      2.33e-03  Done DIIS. Switching to GDM
 ---------------------------------------
  Cycle       Energy        RMS Gradient
 ---------------------------------------
    1   -2166.1740607705      2.42e-01   Descent step
    2   -2166.3030734193      1.63e-01   Descent step
    3   -2166.2905159447      3.27e-01  Line search: overstep
    4   -2166.3446753241      2.07e-01   Descent step
    5   -2166.3619632263      2.28e-01   Descent step
    6   -2166.4132442573      2.30e-01   Descent step
    7   -2166.3837259333      3.94e-01  Line search: overstep
    8   -2166.4655004273      1.70e-01   Normal BFGS step
    9   -2166.4827594487      1.12e-01   Normal BFGS step
   10   -2166.4810631870      1.83e-01  Line search: overstep
   11   -2166.4988832374      5.66e-02   Normal BFGS step
   12   -2166.4660440906      2.34e-01  Line search: overstep
   13   -2166.5056935699      7.45e-02   Normal BFGS step
   14   -2166.5085541058      4.86e-02   Normal BFGS step
   15   -2166.5125540833      3.29e-02   Normal BFGS step
   16   -2166.5120802241      8.35e-02  Line search: overstep
   17   -2166.5140618871      3.41e-02   Normal BFGS step
   18   -2166.5100918021      1.28e-01  Line search: overstep
   19   -2166.5145461458      1.88e-02   Normal BFGS step
   20   -2166.5150615409      1.06e-02   Normal BFGS step
   21   -2166.5154064148      1.74e-02   Normal BFGS step
   22   -2166.5155837250      7.59e-03   Normal BFGS step
   23   -2166.5156688398      6.72e-03   Normal BFGS step
   24   -2166.5157340308      7.39e-03   Normal BFGS step
   25   -2166.5157716233      5.72e-03   Normal BFGS step
   26   -2166.5157982448      2.05e-03   Normal BFGS step
   27   -2166.5158131235      1.80e-03   Normal BFGS step
   28   -2166.5158272832      1.57e-03   Normal BFGS step
   29   -2166.5158288958      1.38e-03   Normal BFGS step
   30   -2166.5158350734      1.08e-03   Normal BFGS step
   31   -2166.5158303612      2.69e-03  Line search: overstep
   32   -2166.5158369318      5.72e-04   Normal BFGS step
   33   -2166.5158382003      1.23e-03   Normal BFGS step
   34   -2166.5158386855      1.33e-03   Normal BFGS step
   35   -2166.5158406058      5.26e-04   Normal BFGS step
   36   -2166.5158405671      1.05e-03   Normal BFGS step
   37   -2166.5158421541      6.45e-04   Normal BFGS step
   38   -2166.5158408214      2.18e-03  Line search: overstep
   39   -2166.5158426384      4.97e-04   Normal BFGS step
   40   -2166.5158416411      1.62e-03  Line search: overstep
   41   -2166.5158429990      3.67e-04   Normal BFGS step
   42   -2166.5158439901      1.83e-04   Normal BFGS step
   43   -2166.5158447045      5.41e-04   Normal BFGS step
   44   -2166.5158451406      5.67e-04   Normal BFGS step
   45   -2166.5158454828      2.84e-04   Normal BFGS step
   46   -2166.5158460473      3.35e-04   Normal BFGS step
   47   -2166.5158464846      2.78e-04   Normal BFGS step
   48   -2166.5158469936      2.79e-04   Normal BFGS step
   49   -2166.5158471817      4.39e-04   Normal BFGS step
   50   -2166.5158477377      1.63e-04   Normal BFGS step
   51   -2166.5158480230      1.85e-04   Normal BFGS step
   52   -2166.5158483132      3.88e-04   Normal BFGS step
   53   -2166.5158484586      4.73e-04   Normal BFGS step
   54   -2166.5158486020      2.61e-04   Normal BFGS step
   55   -2166.5158488243      1.51e-04   Normal BFGS step
   56   -2166.5158489001      1.87e-04   Normal BFGS step
   57   -2166.5158490163      2.72e-04   Normal BFGS step
   58   -2166.5158490399      3.74e-04   Normal BFGS step
   59   -2166.5158492091      4.51e-04   Normal BFGS step
   60   -2166.5158484847      1.51e-03  Line search: overstep
   61   -2166.5158493052      1.75e-04   Normal BFGS step
   62   -2166.5158491862      3.68e-04  Line search: overstep
   63   -2166.5158493843      1.19e-04   Normal BFGS step
   64   -2166.5158495045      7.43e-05   Normal BFGS step
   65   -2166.5158495659      2.06e-04   Normal BFGS step
   66   -2166.5158496332      1.48e-04   Normal BFGS step
  /scratch/qcdevops/jenkins/workspace/build_qchem_linux_distrib/tags/qc511/qchem/libgscf/libgscf/opt/gdm.C::WARNING energy changes are now smaller than effective accuracy.
  /scratch/qcdevops/jenkins/workspace/build_qchem_linux_distrib/tags/qc511/qchem/libgscf/libgscf/opt/gdm.C::        calculation will continue, but THRESH should be increased
  /scratch/qcdevops/jenkins/workspace/build_qchem_linux_distrib/tags/qc511/qchem/libgscf/libgscf/opt/gdm.C::        or SCF_CONVERGENCE decreased. 
  /scratch/qcdevops/jenkins/workspace/build_qchem_linux_distrib/tags/qc511/qchem/libgscf/libgscf/opt/gdm.C::        effective_thresh = 8.17e-09
   67   -2166.5158496251      2.06e-04   Normal BFGS step
   68   -2166.5158496702      7.75e-05   Normal BFGS step
   69   -2166.5158496564      1.04e-04  Line search: overstep
   70   -2166.5158496839      4.40e-05   Normal BFGS step
   71   -2166.5158496891      4.34e-05   Normal BFGS step
   72   -2166.5158496975      3.68e-05   Normal BFGS step
   73   -2166.5158497021      5.92e-05   Normal BFGS step
   74   -2166.5158497066      2.11e-05   Normal BFGS step
   75   -2166.5158497104      4.35e-05   Normal BFGS step
   76   -2166.5158497141      3.01e-05   Normal BFGS step
   77   -2166.5158497159      7.65e-05   Normal BFGS step
   78   -2166.5158497181      6.72e-05   Normal BFGS step
   79   -2166.5158497231      2.23e-05   Normal BFGS step
   80   -2166.5158497242      3.26e-05   Normal BFGS step
   81   -2166.5158497267      4.07e-05   Normal BFGS step
  /scratch/qcdevops/jenkins/workspace/build_qchem_linux_distrib/tags/qc511/qchem/libgscf/libgscf/opt/gdm.C::WARNING energy changes are now smaller than effective accuracy.
  /scratch/qcdevops/jenkins/workspace/build_qchem_linux_distrib/tags/qc511/qchem/libgscf/libgscf/opt/gdm.C::        calculation will continue, but THRESH should be increased
  /scratch/qcdevops/jenkins/workspace/build_qchem_linux_distrib/tags/qc511/qchem/libgscf/libgscf/opt/gdm.C::        or SCF_CONVERGENCE decreased. 
  /scratch/qcdevops/jenkins/workspace/build_qchem_linux_distrib/tags/qc511/qchem/libgscf/libgscf/opt/gdm.C::        effective_thresh = 8.17e-09
   82   -2166.5158497247      1.06e-04   Normal BFGS step
   83   -2166.5158497224      1.30e-04   Normal BFGS step
   84   -2166.5158497236      7.70e-05   Normal BFGS step
   85   -2166.5158497299      2.93e-05   Normal BFGS step
   86   -2166.5158497288      3.13e-05   Normal BFGS step
   87   -2166.5158497323      1.57e-05   Normal BFGS step
   88   -2166.5158497318      3.86e-05   Normal BFGS step
   89   -2166.5158497329      7.63e-06   Normal BFGS step
   90   -2166.5158497328      7.48e-06   Normal BFGS step
   91   -2166.5158497333      7.03e-06   Normal BFGS step
   92   -2166.5158497334      8.59e-06   Normal BFGS step
   93   -2166.5158497337      5.87e-06   Normal BFGS step
   94   -2166.5158497339      7.52e-06   Normal BFGS step
   95   -2166.5158497340      3.50e-06   Normal BFGS step
   96   -2166.5158497341      2.50e-06   Normal BFGS step
   97   -2166.5158497342      6.83e-06   Normal BFGS step
   98   -2166.5158497342      7.03e-06   Normal BFGS step
   99   -2166.5158497342      5.72e-06   Normal BFGS step
  100   -2166.5158497342      3.94e-06   Normal BFGS step
  101   -2166.5158497342      6.28e-06   Normal BFGS step
  102   -2166.5158497342      1.36e-05   Normal BFGS step
  103   -2166.5158497342      9.22e-06   Normal BFGS step
  104   -2166.5158497343      3.41e-06   Normal BFGS step
  105   -2166.5158497343      2.86e-06   Normal BFGS step
  106   -2166.5158497343      6.26e-06   Normal BFGS step
  107   -2166.5158497343      2.84e-06   Normal BFGS step
  108   -2166.5158497343      3.42e-06   Normal BFGS step
  109   -2166.5158497344      2.16e-06   Normal BFGS step
  110   -2166.5158497343      3.59e-06   Normal BFGS step
  111   -2166.5158497344      1.04e-06   Normal BFGS step
  112   -2166.5158497344      1.09e-06   Normal BFGS step
  113   -2166.5158497344      2.07e-06   Normal BFGS step
  114   -2166.5158497344      1.11e-06   Normal BFGS step
  115   -2166.5158497344      1.04e-06   Normal BFGS step
  116   -2166.5158497344      1.24e-06   Normal BFGS step
  117   -2166.5158497344      1.30e-06   Normal BFGS step
  118   -2166.5158497344      3.20e-06   Normal BFGS step
  119   -2166.5158497344      1.57e-06   Normal BFGS step
  120   -2166.5158497344      3.72e-06   Normal BFGS step
  121   -2166.5158497344      4.49e-06   Normal BFGS step
  122   -2166.5158497344      5.01e-06   Normal BFGS step
  123   -2166.5158497344      6.97e-07   Normal BFGS step
  124   -2166.5158497344      1.17e-06   Normal BFGS step
  125   -2166.5158497344      2.99e-07   Normal BFGS step
  126   -2166.5158497344      1.15e-06   Normal BFGS step
  127   -2166.5158497344      3.98e-07   Normal BFGS step
  128   -2166.5158497344      8.20e-07   Normal BFGS step
  129   -2166.5158497344      1.12e-07   Normal BFGS step
  130   -2166.5158497344      1.58e-07   Normal BFGS step
  131   -2166.5158497344      2.37e-07   Normal BFGS step
  132   -2166.5158497344      5.26e-07   Normal BFGS step
  133   -2166.5158497344      1.36e-07   Normal BFGS step
  134   -2166.5158497344      1.28e-07   Normal BFGS step
  135   -2166.5158497344      7.43e-08   Normal BFGS step
  136   -2166.5158497344      1.78e-07   Normal BFGS step
  137   -2166.5158497344      8.14e-08   Normal BFGS step
  138   -2166.5158497344      2.80e-07   Normal BFGS step
  139   -2166.5158497344      2.04e-07   Normal BFGS step
  140   -2166.5158497344      8.07e-07   Normal BFGS step
  141   -2166.5158497344      1.57e-07   Normal BFGS step
  142   -2166.5158497344      1.93e-07   Normal BFGS step
  143   -2166.5158497344      4.93e-08   Normal BFGS step
  144   -2166.5158497344      7.65e-08   Normal BFGS step
  145   -2166.5158497344      2.00e-08   Normal BFGS step
  146   -2166.5158497344      4.29e-08   Normal BFGS step
  147   -2166.5158497344      4.42e-08   Normal BFGS step
  148   -2166.5158497344      4.70e-08   Normal BFGS step
  149   -2166.5158497344      3.68e-08   Normal BFGS step
  150   -2166.5158497344      2.83e-08   Normal BFGS step
  /scratch/qcdevops/jenkins/workspace/build_qchem_linux_distrib/tags/qc511/qchem/libgscf/libgscf/opt/gdm.C::WARNING energy changes are now smaller than effective accuracy.
  /scratch/qcdevops/jenkins/workspace/build_qchem_linux_distrib/tags/qc511/qchem/libgscf/libgscf/opt/gdm.C::        calculation will continue, but THRESH should be increased
  /scratch/qcdevops/jenkins/workspace/build_qchem_linux_distrib/tags/qc511/qchem/libgscf/libgscf/opt/gdm.C::        or SCF_CONVERGENCE decreased. 
  /scratch/qcdevops/jenkins/workspace/build_qchem_linux_distrib/tags/qc511/qchem/libgscf/libgscf/opt/gdm.C::        effective_thresh = 8.17e-09
  151   -2166.5158497344      1.33e-08   Normal BFGS step
  152   -2166.5158497344      2.89e-08   Normal BFGS step
  153   -2166.5158497344      1.02e-08   Normal BFGS step
  /scratch/qcdevops/jenkins/workspace/build_qchem_linux_distrib/tags/qc511/qchem/libgscf/libgscf/opt/gdm.C::WARNING energy changes are now smaller than effective accuracy.
  /scratch/qcdevops/jenkins/workspace/build_qchem_linux_distrib/tags/qc511/qchem/libgscf/libgscf/opt/gdm.C::        calculation will continue, but THRESH should be increased
  /scratch/qcdevops/jenkins/workspace/build_qchem_linux_distrib/tags/qc511/qchem/libgscf/libgscf/opt/gdm.C::        or SCF_CONVERGENCE decreased. 
  /scratch/qcdevops/jenkins/workspace/build_qchem_linux_distrib/tags/qc511/qchem/libgscf/libgscf/opt/gdm.C::        effective_thresh = 8.17e-09
  154   -2166.5158497344      1.36e-08   Normal BFGS step
  155   -2166.5158497344      6.61e-09  Convergence criterion met
 ---------------------------------------
 SCF time:   CPU 2590.12s  wall 216.00s 
<S^2> =          5.024010062
 SCF   energy in the final basis set =    -2166.5158497344
 Total energy in the final basis set =    -2166.5158497344
 
 --------------------------------------------------------------
 
                    Orbital Energies (a.u.)
 --------------------------------------------------------------
 
 Alpha MOs
 -- Occupied --
******* -29.984 -25.943 -25.940 -25.930 -14.502 -14.499 -14.494
-14.493 -14.424 -14.418 -14.412 -14.407 -10.390 -10.387 -10.386
-10.379 -10.373 -10.371 -10.358 -10.358 -10.341 -10.338 -10.336
-10.331  -3.755  -2.586  -2.580  -2.558  -1.349  -1.348  -1.347
 -1.347  -1.206  -1.204  -1.203  -1.203  -1.076  -1.074  -1.072
 -1.072  -0.968  -0.964  -0.962  -0.960  -0.933  -0.932  -0.930
 -0.929  -0.906  -0.903  -0.902  -0.900  -0.800  -0.796  -0.794
 -0.793  -0.790  -0.787  -0.786  -0.785  -0.785  -0.781  -0.780
 -0.776  -0.754  -0.750  -0.749  -0.749  -0.698  -0.689  -0.687
 -0.679  -0.653  -0.649  -0.645  -0.645  -0.643  -0.613  -0.600
 -0.599  -0.594  -0.589  -0.588  -0.587
 -- Virtual --
 -0.584  -0.579  -0.410  -0.404  -0.400  -0.394  -0.362  -0.360
 -0.352  -0.348  -0.327  -0.262  -0.247  -0.238  -0.237  -0.209
 -0.201  -0.194  -0.193  -0.190  -0.185  -0.183  -0.181  -0.171
 -0.166  -0.159  -0.153  -0.134  -0.133  -0.120  -0.109  -0.074
 -0.067  -0.060  -0.058  -0.037  -0.036  -0.032  -0.027   0.002
  0.008   0.014   0.018   0.052   0.082   0.091   0.093   0.098
  0.099   0.104   0.121   0.128   0.135   0.144   0.147   0.158
  0.163   0.166   0.171   0.176   0.183   0.192   0.195   0.198
  0.199   0.205   0.207   0.211   0.222   0.225   0.233   0.235
  0.241   0.244   0.248   0.251   0.253   0.257   0.270   0.277
  0.286   0.294   0.296   0.305   0.323   0.324   0.327   0.394
  0.404   0.410   0.412   0.414   0.445   0.455   0.476   0.478
  0.482   0.485   0.487   0.501   0.516   0.526   0.544   0.565
  0.605   0.608   0.612   0.623   0.628   0.638   0.651   0.657
  0.773   0.774   0.782   0.794   0.827   0.842   0.848   0.873
  0.902   0.914   0.917   0.920   1.124   1.134   1.141   1.150
  1.172   1.185   1.190   1.195
 
 Beta MOs
 -- Occupied --
******* -29.929 -25.899 -25.897 -25.892 -14.502 -14.498 -14.494
-14.493 -14.428 -14.415 -14.413 -14.407 -10.392 -10.391 -10.386
-10.377 -10.377 -10.369 -10.360 -10.358 -10.343 -10.337 -10.336
-10.332  -3.624  -2.451  -2.450  -2.438  -1.352  -1.350  -1.348
 -1.347  -1.205  -1.205  -1.205  -1.202  -1.082  -1.078  -1.075
 -1.071  -0.969  -0.964  -0.963  -0.962  -0.934  -0.933  -0.932
 -0.932  -0.908  -0.905  -0.902  -0.901  -0.801  -0.796  -0.794
 -0.794  -0.792  -0.792  -0.789  -0.788  -0.786  -0.781  -0.780
 -0.778  -0.754  -0.751  -0.751  -0.749  -0.651  -0.646  -0.646
 -0.646  -0.614  -0.611  -0.605  -0.602  -0.595  -0.589  -0.588
 -0.587  -0.586
 -- Virtual --
 -0.585  -0.561  -0.558  -0.549  -0.548  -0.412  -0.411  -0.410
 -0.394  -0.366  -0.362  -0.358  -0.355  -0.321  -0.263  -0.247
 -0.240  -0.237  -0.210  -0.201  -0.195  -0.193  -0.191  -0.188
 -0.185  -0.183  -0.171  -0.166  -0.159  -0.155  -0.137  -0.133
 -0.122  -0.108  -0.075  -0.067  -0.061  -0.059  -0.038  -0.036
 -0.033  -0.027   0.001   0.008   0.012   0.019   0.042   0.081
  0.088   0.092   0.098   0.102   0.106   0.117   0.124   0.133
  0.135   0.150   0.156   0.159   0.170   0.174   0.175   0.177
  0.189   0.190   0.197   0.199   0.205   0.209   0.211   0.218
  0.223   0.231   0.233   0.239   0.240   0.247   0.250   0.252
  0.255   0.269   0.281   0.287   0.292   0.296   0.305   0.323
  0.324   0.327   0.403   0.406   0.410   0.415   0.426   0.457
  0.467   0.478   0.480   0.482   0.489   0.500   0.526   0.555
  0.570   0.573   0.586   0.606   0.610   0.615   0.627   0.636
  0.641   0.654   0.676   0.773   0.775   0.783   0.794   0.828
  0.840   0.849   0.878   0.903   0.912   0.918   0.922   1.124
  1.133   1.140   1.150   1.172   1.184   1.190   1.194
 --------------------------------------------------------------
 
          Ground-State Mulliken Net Atomic Charges

     Atom                 Charge (a.u.)    Spin (a.u.)
  --------------------------------------------------------
      1 Fe                    0.707700       3.840517
      2 N                    -0.236556       0.005672
      3 C                     0.213728      -0.037828
      4 N                    -0.450918       0.016458
      5 C                     0.166137      -0.028906
      6 C                     0.076744      -0.016317
      7 H                     0.124398       0.000801
      8 H                     0.130531       0.000815
      9 H                     0.131464       0.002047
     10 H                     0.221614      -0.001011
     11 H                     0.132918       0.006348
     12 C                     0.212309      -0.188461
     13 H                     0.186341      -0.000473
     14 N                    -0.441112       0.029382
     15 C                     0.135709      -0.098810
     16 C                     0.253062      -0.151694
     17 H                     0.137520       0.004439
     18 N                    -0.220391      -0.056142
     19 H                     0.103455       0.004556
     20 H                     0.121670       0.011969
     21 C                     0.215785      -0.302134
     22 H                     0.214139      -0.000285
     23 N                    -0.420340       0.050070
     24 C                     0.166494      -0.160859
     25 C                     0.393922      -0.280995
     26 H                     0.141879       0.009155
     27 N                    -0.189996       0.180984
     28 H                     0.139497       0.012324
     29 H                     0.098616      -0.008242
     30 C                     0.108216       0.178295
     31 H                     0.194645       0.000105
     32 N                    -0.434959      -0.027448
     33 C                     0.160281       0.086893
     34 C                     0.403607       0.156084
     35 H                     0.138818      -0.006636
     36 N                    -0.184486      -0.223060
     37 H                     0.147558      -0.007612
  --------------------------------------------------------
  Sum of atomic charges =     3.000000
  Sum of spin   charges =     3.000000

 -----------------------------------------------------------------
                    Cartesian Multipole Moments
 -----------------------------------------------------------------
    Charge (ESU x 10^10)
                14.4096
    Dipole Moment (Debye)
         X     -39.1673      Y     140.5041      Z      96.5325
       Tot     174.9114
    Quadrupole Moments (Debye-Ang)
        XX      69.1622     XY    -411.8848     YY    1288.1462
        XZ    -268.9033     YZ     947.3688     ZZ     586.1256
    Octopole Moments (Debye-Ang^2)
       XXX     -18.8416    XXY     825.1098    XYY   -4094.9586
       YYY   10973.7673    XXZ     476.5761    XYZ   -2892.1054
       YYZ    8712.9271    XZZ   -1693.0050    YZZ    5820.9614
       ZZZ    2947.2871
    Hexadecapole Moments (Debye-Ang^3)
      XXXX   -3475.2864   XXXY    -628.3984   XXYY    7917.2289
      XYYY  -38633.0869   YYYY   81770.4002   XXXZ     -28.5319
      XXYZ    6059.5991   XYYZ  -29252.9373   YYYZ   74278.8341
      XXZZ    1825.6948   XYZZ  -18921.8118   YYZZ   52893.7992
      XZZZ   -9056.1664   YZZZ   30149.3850   ZZZZ    5519.9268
 -----------------------------------------------------------------
 Calculating analytic gradient of the SCF energy
 Gradient of SCF Energy
            1           2           3           4           5           6
    1  -0.0081390  -0.0268694  -0.0495105   0.0327900   0.0415173   0.0093349
    2  -0.0009005   0.0089266   0.0097789   0.0281846  -0.0142745  -0.0116424
    3   0.0021917  -0.0014359  -0.0154044   0.0227551  -0.0010385  -0.0096647
            7           8           9          10          11          12
    1   0.0033571  -0.0033793  -0.0028900  -0.0015442   0.0003181   0.0289298
    2   0.0003179  -0.0008904  -0.0050613  -0.0171945  -0.0021060  -0.0361636
    3   0.0062376   0.0000853   0.0064778   0.0023658   0.0057393   0.0091057
           13          14          15          16          17          18
    1   0.0138713  -0.0200936   0.0193442  -0.0133440   0.0038311  -0.0178292
    2   0.0057922  -0.0189057  -0.0028473   0.0329558   0.0038858   0.0133969
    3  -0.0035101   0.0268693  -0.0130502  -0.0200642  -0.0025362  -0.0041230
           19          20          21          22          23          24
    1  -0.0010508  -0.0038218   0.0066866   0.0054997  -0.0241314   0.0262187
    2   0.0068450  -0.0017380  -0.0262881  -0.0044856   0.0021958  -0.0051131
    3   0.0027077   0.0034567   0.0381911  -0.0086836   0.0287504  -0.0195432
           25          26          27          28          29          30
    1  -0.0110065   0.0043584   0.0031703  -0.0034316   0.0012971   0.0363225
    2   0.0261359  -0.0010225   0.0045070   0.0024859   0.0044807   0.0178886
    3  -0.0349414  -0.0041048  -0.0094740  -0.0026118   0.0039763   0.0075258
           31          32          33          34          35          36
    1  -0.0091693   0.0040128   0.0067138  -0.0421709  -0.0022391  -0.0039112
    2   0.0039606  -0.0190673   0.0207423  -0.0194592   0.0035107  -0.0058663
    3  -0.0077995   0.0265726  -0.0223242  -0.0149738  -0.0038233   0.0054297
           37
    1  -0.0030418
    2  -0.0029648
    3   0.0006690
 Max gradient component =       4.951E-02
 RMS gradient           =       1.618E-02
 Gradient time:  CPU 34.70 s  wall 3.06 s
 Geometry Optimization Parameters
   NAtoms,    NIC,     NZ,  NCons,   NDum,   NFix, NCnnct, MaxDiis
       37     310       0       0       0       0       0       0

 Cartesian Hessian Update
 Hessian Updated using BFGS Update


** GEOMETRY OPTIMIZATION IN DELOCALIZED INTERNAL COORDINATES **
   Searching for a Minimum

   Optimization Cycle:   2

                       Coordinates (Angstroms)
     ATOM                X               Y               Z
      1  Fe       -1.8810434681    8.6133058062    5.0523679297
      2  N        -0.9929598980   12.4766734221    6.0244579125
      3  C        -1.0618784123   11.6578180351    4.9514973796
      4  N        -2.3494131863   11.5207523807    4.5128946228
      5  C        -3.1209723685   12.2879292185    5.3266242041
      6  C        -2.2731028374   12.8898929805    6.2523559098
      7  H        -4.1932733613   12.4157662827    5.2282731755
      8  H        -2.5458183185   13.6129508479    7.0222152519
      9  H        -0.1995324262   11.1928434383    4.4797802862
     10  H        -2.6621144239   10.9581272451    3.6945044444
     11  H        -6.6533826385   10.2235572228    5.6958504194
     12  C        -6.1361461098    9.3647995755    6.1102205391
     13  H        -4.3398523589    9.2939021985    4.9288547540
     14  N        -4.9304872707    8.9012312948    5.6910853131
     15  C        -6.5591199489    8.5332683453    7.1452708240
     16  C        -4.6454000117    7.8147646260    6.4630776929
     17  H        -7.4844346162    8.6174091908    7.7043687445
     18  N        -5.6229511892    7.5688254045    7.3595062540
     19  H        -3.7454646295    7.2164950923    6.3717736212
     20  H        -4.5970106432   12.2532679916    8.2542337104
     21  C        -4.4338044251   11.6253552045    9.1221715088
     22  H        -2.5462034760   10.6967151950    8.7035081497
     23  N        -3.3613746751   10.8229786340    9.3333348776
     24  C        -5.2742686879   11.4930140186   10.2269593034
     25  C        -3.5594241352   10.2223380747   10.5412752151
     26  H        -6.2211799180   11.9975658798   10.3837474181
     27  N        -4.7234531849   10.6156043306   11.1043283515
     28  H        -2.8707677373    9.5211257354   10.9980045478
     29  H        -1.1605817593    7.2263833295    7.1398135238
     30  C        -0.2446951049    7.6033585967    7.5846923373
     31  H         0.3156734306    9.1600358761    6.2151183694
     32  N         0.5094353152    8.6171225183    7.0805060691
     33  C         0.3760440676    7.1588672983    8.7464935798
     34  C         1.5646381699    8.7781285727    7.9236174769
     35  H         0.0425252575    6.3589803590    9.3985302474
     36  N         1.4999089843    7.8961208355    8.9467240819
     37  H         2.3524059956    9.5124949417    7.7936319536
   Point Group: c1    Number of degrees of freedom:   105


   Energy is  -2166.515849734

 Hessian Updated using BFGS Update

105 Hessian modes will be used to form the next step
  Hessian Eigenvalues:
     0.002074    0.002229    0.002343    0.004397    0.005902    0.006774
     0.007867    0.008370    0.010781    0.011701    0.012390    0.012855
     0.013706    0.015457    0.016459    0.017023    0.017543    0.018596
     0.018759    0.019251    0.020318    0.020906    0.022759    0.022775
     0.022816    0.023144    0.023271    0.023722    0.024107    0.024146
     0.024437    0.024530    0.024638    0.024672    0.024725    0.025857
     0.029084    0.030956    0.034424    0.041104    0.048389    0.049917
     0.063929    0.086589    0.090347    0.103192    0.122288    0.132085
     0.149141    0.158633    0.159999    0.160000    0.160000    0.160000
     0.160000    0.160000    0.160000    0.160000    0.160000    0.160000
     0.192204    0.212905    0.214018    0.218414    0.220133    0.225092
     0.225425    0.228801    0.256584    0.300702    0.325552    0.336104
     0.343410    0.353973    0.357514    0.357624    0.357707    0.357935
     0.358025    0.358094    0.358459    0.363449    0.373277    0.387700
     0.406495    0.418078    0.431658    0.439930    0.444693    0.455852
     0.472807    0.484962    0.491299    0.499924    0.517675    0.523332
     0.528021    0.537789    0.544017    0.547230    0.555428    0.558524
     0.560769    0.562846    0.580040

 Minimum Search - Taking Simple RFO Step
 Searching for Lamda that Minimizes Along All modes
 Value Taken    Lamda =  -0.07556533
 Calculated Step too Large.  Step scaled by  0.492537
 Step Taken.  Stepsize is  0.300000

                             Maximum     Tolerance    Cnvgd?
         Gradient           0.072165      0.000300      NO
         Displacement       0.118884      0.001200      NO
         Energy change     -0.049752      0.000001      NO


 New Cartesian Coordinates Obtained by Inverse Iteration

 Displacement from previous Coordinates is:  3.100962
 ----------------------------------------------------------------
             Standard Nuclear Orientation (Angstroms)
    I     Atom           X                Y                Z
 ----------------------------------------------------------------
    1      Fe     -1.8360411915     8.5954936027     4.9359672253
    2      N      -1.0293423922    12.4069360312     6.0054644963
    3      C      -1.0558147056    11.6213975340     4.9049167292
    4      N      -2.3577186097    11.4925344273     4.4148537904
    5      C      -3.1776224836    12.2269474788     5.2372679744
    6      C      -2.3392656873    12.7987775295     6.2135349306
    7      H      -4.2491679632    12.3465934446     5.0955468690
    8      H      -2.6316352128    13.5004941288     7.0019935008
    9      H      -0.1704908979    11.1834149705     4.4435588203
   10      H      -2.6407645782    10.9672083755     3.5701944679
[...]
  186   -2166.7312761388      5.12e-08   Normal BFGS step
  187   -2166.7312761388      9.71e-08   Normal BFGS step
  188   -2166.7312761388      6.52e-08   Normal BFGS step
  189   -2166.7312761388      3.47e-08   Normal BFGS step
  190   -2166.7312761388      2.61e-08   Normal BFGS step
  191   -2166.7312761388      1.42e-08   Normal BFGS step
  192   -2166.7312761388      1.22e-08   Normal BFGS step
  /scratch/qcdevops/jenkins/workspace/build_qchem_linux_distrib/tags/qc511/qchem/libgscf/libgscf/opt/gdm.C::WARNING energy changes are now smaller than effective accuracy.
  /scratch/qcdevops/jenkins/workspace/build_qchem_linux_distrib/tags/qc511/qchem/libgscf/libgscf/opt/gdm.C::        calculation will continue, but THRESH should be increased
  /scratch/qcdevops/jenkins/workspace/build_qchem_linux_distrib/tags/qc511/qchem/libgscf/libgscf/opt/gdm.C::        or SCF_CONVERGENCE decreased. 
  /scratch/qcdevops/jenkins/workspace/build_qchem_linux_distrib/tags/qc511/qchem/libgscf/libgscf/opt/gdm.C::        effective_thresh = 7.41e-09
  193   -2166.7312761388      2.22e-08   Normal BFGS step
  194   -2166.7312761388      2.49e-08   Normal BFGS step
  195   -2166.7312761388      2.25e-08   Normal BFGS step
  /scratch/qcdevops/jenkins/workspace/build_qchem_linux_distrib/tags/qc511/qchem/libgscf/libgscf/opt/gdm.C::WARNING energy changes are now smaller than effective accuracy.
  /scratch/qcdevops/jenkins/workspace/build_qchem_linux_distrib/tags/qc511/qchem/libgscf/libgscf/opt/gdm.C::        calculation will continue, but THRESH should be increased
  /scratch/qcdevops/jenkins/workspace/build_qchem_linux_distrib/tags/qc511/qchem/libgscf/libgscf/opt/gdm.C::        or SCF_CONVERGENCE decreased. 
  /scratch/qcdevops/jenkins/workspace/build_qchem_linux_distrib/tags/qc511/qchem/libgscf/libgscf/opt/gdm.C::        effective_thresh = 7.41e-09
  196   -2166.7312761388      1.26e-08   Normal BFGS step
  197   -2166.7312761388      1.78e-08   Normal BFGS step
  198   -2166.7312761388      2.07e-08   Normal BFGS step
  199   -2166.7312761388      6.99e-08   Normal BFGS step
  200   -2166.7312761388      6.83e-08   Normal BFGS step
  201   -2166.7312761388      1.87e-08   Normal BFGS step
  202   -2166.7312761388      1.44e-08   Normal BFGS step
  203   -2166.7312761388      6.48e-09  Convergence criterion met
 ---------------------------------------
 SCF time:   CPU 2719.00s  wall 227.00s 
<S^2> =          4.782019659
 SCF   energy in the final basis set =    -2166.7312761388
 Total energy in the final basis set =    -2166.7312761388
 
 --------------------------------------------------------------
 
                    Orbital Energies (a.u.)
 --------------------------------------------------------------
 
 Alpha MOs
 -- Occupied --
******* -29.920 -25.881 -25.873 -25.867 -14.448 -14.437 -14.420
-14.418 -14.406 -14.360 -14.351 -14.346 -10.354 -10.341 -10.336
-10.321 -10.317 -10.311 -10.304 -10.300 -10.293 -10.287 -10.262
-10.260  -3.684  -2.519  -2.501  -2.488  -1.291  -1.268  -1.254
 -1.247  -1.165  -1.138  -1.129  -1.112  -1.034  -0.999  -0.994
 -0.991  -0.920  -0.898  -0.893  -0.887  -0.875  -0.863  -0.854
 -0.850  -0.845  -0.831  -0.828  -0.816  -0.773  -0.753  -0.739
 -0.738  -0.731  -0.724  -0.721  -0.716  -0.711  -0.707  -0.707
 -0.700  -0.689  -0.689  -0.683  -0.677  -0.676  -0.640  -0.613
 -0.611  -0.597  -0.584  -0.584  -0.581  -0.575  -0.561  -0.554
 -0.538  -0.531  -0.530  -0.518  -0.518
 -- Virtual --
 -0.518  -0.440  -0.410  -0.359  -0.347  -0.346  -0.330  -0.307
 -0.293  -0.287  -0.251  -0.210  -0.204  -0.197  -0.191  -0.180
 -0.174  -0.151  -0.140  -0.138  -0.132  -0.131  -0.126  -0.117
 -0.106  -0.092  -0.088  -0.076  -0.065  -0.048  -0.031  -0.026
 -0.021  -0.019   0.010   0.019   0.021   0.028   0.037   0.039
  0.052   0.073   0.099   0.109   0.127   0.134   0.153   0.168
  0.173   0.175   0.181   0.185   0.187   0.194   0.195   0.202
  0.215   0.216   0.219   0.230   0.235   0.237   0.237   0.242
  0.243   0.249   0.253   0.259   0.267   0.267   0.277   0.282
  0.282   0.284   0.289   0.293   0.306   0.316   0.318   0.329
  0.347   0.350   0.356   0.370   0.375   0.378   0.391   0.394
  0.418   0.468   0.469   0.477   0.504   0.518   0.530   0.533
  0.544   0.556   0.564   0.565   0.586   0.596   0.620   0.635
  0.650   0.654   0.659   0.664   0.682   0.705   0.727   0.743
  0.768   0.803   0.841   0.862   0.874   0.897   0.905   0.934
  0.952   0.957   0.977   0.999   1.103   1.141   1.176   1.190
  1.212   1.223   1.236   1.245
 
 Beta MOs
 -- Occupied --
******* -29.866 -25.838 -25.833 -25.830 -14.448 -14.436 -14.419
-14.418 -14.406 -14.360 -14.347 -14.346 -10.354 -10.347 -10.342
-10.321 -10.317 -10.311 -10.303 -10.303 -10.293 -10.286 -10.261
-10.259  -3.556  -2.386  -2.378  -2.371  -1.290  -1.273  -1.254
 -1.243  -1.164  -1.139  -1.129  -1.107  -1.033  -1.014  -0.993
 -0.987  -0.919  -0.897  -0.897  -0.886  -0.872  -0.869  -0.854
 -0.849  -0.842  -0.838  -0.828  -0.814  -0.771  -0.752  -0.738
 -0.737  -0.736  -0.728  -0.721  -0.719  -0.714  -0.709  -0.704
 -0.700  -0.692  -0.685  -0.681  -0.674  -0.663  -0.616  -0.589
 -0.581  -0.572  -0.556  -0.555  -0.536  -0.533  -0.523  -0.517
 -0.516  -0.510
 -- Virtual --
 -0.502  -0.489  -0.481  -0.469  -0.418  -0.399  -0.376  -0.355
 -0.343  -0.326  -0.324  -0.290  -0.280  -0.244  -0.208  -0.202
 -0.198  -0.196  -0.178  -0.172  -0.156  -0.152  -0.141  -0.137
 -0.130  -0.125  -0.115  -0.103  -0.091  -0.084  -0.079  -0.065
 -0.047  -0.030  -0.026  -0.024  -0.020   0.012   0.018   0.021
  0.028   0.038   0.042   0.049   0.074   0.100   0.111   0.121
  0.136   0.152   0.154   0.172   0.176   0.182   0.187   0.188
  0.192   0.198   0.205   0.209   0.215   0.218   0.222   0.230
  0.232   0.235   0.241   0.244   0.251   0.253   0.256   0.261
  0.270   0.277   0.279   0.284   0.288   0.290   0.299   0.307
  0.310   0.321   0.340   0.346   0.353   0.362   0.373   0.376
  0.382   0.394   0.396   0.431   0.468   0.470   0.483   0.512
  0.523   0.528   0.550   0.550   0.557   0.564   0.572   0.603
  0.606   0.629   0.633   0.653   0.653   0.665   0.674   0.703
  0.714   0.750   0.767   0.790   0.802   0.850   0.864   0.878
  0.894   0.907   0.939   0.953   0.954   0.980   1.018   1.106
  1.143   1.179   1.187   1.208   1.227   1.241   1.246
 --------------------------------------------------------------
 
          Ground-State Mulliken Net Atomic Charges

     Atom                 Charge (a.u.)    Spin (a.u.)
  --------------------------------------------------------
      1 Fe                    0.902665       3.269713
      2 N                    -0.560255       0.064774
      3 C                     0.197253      -0.013916
      4 N                    -0.381955       0.007455
      5 C                     0.221473       0.034323
      6 C                     0.124310       0.008900
      7 H                     0.132069      -0.000747
      8 H                     0.117528       0.000550
      9 H                     0.160470      -0.002773
     10 H                     0.235649       0.000275
     11 H                     0.127218      -0.001801
     12 C                     0.237766       0.041365
     13 H                     0.213772      -0.000197
     14 N                    -0.419948      -0.002605
     15 C                     0.143693       0.038388
     16 C                     0.096928       0.034646
     17 H                     0.114859      -0.002453
     18 N                    -0.236667      -0.054645
     19 H                     0.119810      -0.001092
     20 H                     0.138840       0.017853
     21 C                     0.263252      -0.467548
     22 H                     0.243925      -0.001093
     23 N                    -0.393285       0.082328
     24 C                     0.156971      -0.189930
     25 C                     0.406606      -0.415358
     26 H                     0.146796       0.008863
     27 N                    -0.210340       0.035113
     28 H                     0.160005       0.017002
     29 H                     0.095759      -0.002426
     30 C                     0.122553       0.119548
     31 H                     0.193950       0.000041
     32 N                    -0.445930      -0.010023
     33 C                     0.146245       0.031640
     34 C                     0.384592       0.063434
     35 H                     0.131990       0.001793
     36 N                    -0.225953       0.288799
     37 H                     0.137388      -0.000195
  --------------------------------------------------------
  Sum of atomic charges =     3.000000
  Sum of spin   charges =     3.000000

 -----------------------------------------------------------------
                    Cartesian Multipole Moments
 -----------------------------------------------------------------
    Charge (ESU x 10^10)
                14.4096
    Dipole Moment (Debye)
         X     -41.1587      Y     150.4018      Z     105.0945
       Tot     188.0415
    Quadrupole Moments (Debye-Ang)
        XX      87.0965     XY    -464.4009     YY    1559.1150
        XZ    -297.1074     YZ    1208.0200     ZZ     872.8023
    Octopole Moments (Debye-Ang^2)
       XXX    -109.5919    XXY    1050.6357    XYY   -5176.9399
       YYY   16268.9810    XXZ     557.5165    XYZ   -3777.0333
       YYZ   13846.3449    XZZ   -2631.3318    YZZ   11216.3129
       ZZZ    8497.8581
    Hexadecapole Moments (Debye-Ang^3)
      XXXX   -3909.8747   XXXY    -470.3938   XXYY   11165.8730
      XYYY  -57313.2107   YYYY  167632.1257   XXXZ     201.6346
      XXYZ    7920.4575   XYYZ  -46736.4259   YYYZ  158151.8524
      XXZZ    3610.8227   XYZZ  -36452.9223   YYZZ  139992.0348
      XZZZ  -27434.4390   YZZZ  117522.0055   ZZZZ   89244.8598
 -----------------------------------------------------------------
 Calculating analytic gradient of the SCF energy
 Gradient of SCF Energy
            1           2           3           4           5           6
    1   0.0205091  -0.0169335  -0.0089487  -0.0067910   0.0084223   0.0021044
    2   0.0099274  -0.0041362  -0.0028017   0.0039619  -0.0051477  -0.0070779
    3  -0.0032869   0.0094547   0.0006909  -0.0125842  -0.0087565   0.0216781
            7           8           9          10          11          12
    1   0.0060073   0.0056445   0.0102548  -0.0019354   0.0068620   0.0166515
    2   0.0009637   0.0045035   0.0139396  -0.0076836  -0.0036890   0.0098949
    3   0.0007902  -0.0083870   0.0022904   0.0012339   0.0041574  -0.0065117
           13          14          15          16          17          18
    1   0.0014539  -0.0324741  -0.0060997   0.0093461   0.0201140  -0.0214867
    2  -0.0027411   0.0063467  -0.0280677  -0.0282629   0.0117232   0.0206211
    3   0.0011349   0.0038867   0.0163160   0.0035857  -0.0118893  -0.0190145
           19          20          21          22          23          24
    1  -0.0094667  -0.0037682   0.0037167   0.0070951   0.0018559   0.0001052
    2   0.0098284   0.0001418  -0.0025924  -0.0006405  -0.0048508   0.0016294
    3   0.0108299  -0.0129711   0.0127452  -0.0016594   0.0106020  -0.0073383
           25          26          27          28          29          30
    1   0.0055322  -0.0066232  -0.0137773   0.0067146   0.0033553  -0.0020516
    2  -0.0029293   0.0018164   0.0070049  -0.0020761   0.0031500  -0.0163596
    3  -0.0196724  -0.0018235   0.0079241   0.0076838   0.0038538   0.0029608
           31          32          33          34          35          36
    1  -0.0043258   0.0097282  -0.0051385  -0.0047085   0.0010539  -0.0019079
    2  -0.0011408   0.0052315   0.0065280   0.0020545   0.0040605  -0.0037942
    3  -0.0012531   0.0025613  -0.0044852  -0.0020684   0.0001618  -0.0031995
           37
    1  -0.0000906
    2   0.0006639
    3   0.0003594
 Max gradient component =       3.247E-02
 RMS gradient           =       9.696E-03
 Gradient time:  CPU 26.11 s  wall 2.41 s
 Geometry Optimization Parameters
   NAtoms,    NIC,     NZ,  NCons,   NDum,   NFix, NCnnct, MaxDiis
       37     310       0       0       0       0       0       0

 Cartesian Hessian Update
 Hessian Updated using BFGS Update


** GEOMETRY OPTIMIZATION IN CARTESIAN COORDINATES **
   Searching for a Minimum

   Optimization Cycle:  50

                       Coordinates (Angstroms)
     ATOM                X               Y               Z
      1  Fe       -2.1229110180    8.4893202968    5.1310517869
      2  N        -2.1122529998   10.2820975555    5.8666484238
      3  C        -1.8656371348   10.7588957701    4.5466418371
      4  N        -2.9076152480   11.6178472573    4.2127371015
      5  C        -3.7288240587   11.7646489446    5.3164090730
      6  C        -3.2489877847   10.9391686195    6.3441537332
      7  H        -4.5292835936   12.4972692944    5.3258503621
      8  H        -3.6041668897   10.8213998338    7.3498813635
      9  H        -0.8458058995   10.9851709713    4.1594817517
     10  H        -3.0264572048   12.0734087767    3.3000480549
     11  H        -7.0736253837    8.4822734827    3.1807786147
     12  C        -6.3034077883    7.8629017449    3.6123561211
     13  H        -4.6107777345    8.6010377377    2.5879736437
     14  N        -5.0002295327    8.0330954358    3.3511229932
     15  C        -6.4032121982    6.7631705724    4.5346484585
     16  C        -4.2458121564    7.0462357951    4.1381730669
     17  H        -7.2899566711    6.3647337628    4.9439837637
     18  N        -5.1701939896    6.3271089335    4.8207039603
     19  H        -3.3254173582    6.6220718187    3.7811418940
     20  H        -4.4836314441   13.3336993475   11.2310131605
     21  C        -4.4645448599   13.7223030090   12.2692353007
     22  H        -2.4879189767   13.1751283723   12.9912074927
     23  N        -3.4077783001   13.6349037629   13.1515587334
     24  C        -5.4631908118   14.5912529363   12.9160483674
     25  C        -3.7435465019   14.4168338299   14.2668909053
     26  H        -6.4432944599   14.9021459640   12.5198348501
     27  N        -5.0125203070   14.9996702694   14.1421876552
     28  H        -3.0967320371   14.4783212706   15.1648839710
     29  H        -0.1715965911    6.4068909095    5.8792371061
     30  C         0.5715022916    6.6195433220    6.6352513195
     31  H         0.7022625099    8.7904333544    6.4631309771
     32  N         1.1137251520    7.9196175095    6.8212403446
     33  C         1.3860452775    5.7582679865    7.3691323788
     34  C         2.1820333870    7.8109792610    7.6931556505
     35  H         1.3894431068    4.6754580854    7.4100808814
     36  N         2.3740394757    6.5044529111    7.9732657899
     37  H         2.7407977113    8.6480112811    8.1105291155
   Point Group: c1    Number of degrees of freedom:   105


   Energy is  -2166.731276139


 Translations and Rotations Projected Out of Hessian

103 Hessian modes will be used to form the next step
  Hessian Eigenvalues:
     0.000247    0.000854    0.002388    0.005130    0.015909    0.065372
     0.084248    0.151445    0.207874    0.239038    0.344347    0.415626
     0.463959    0.553005    0.606056    0.685424    0.878685    0.926013
     0.942231    0.976237    0.978886    0.988633    0.999155    0.999836
     0.999962    0.999989    0.999994    0.999998    0.999999    1.000000
     1.000000    1.000000    1.000000    1.000000    1.000000    1.000000
     1.000000    1.000000    1.000000    1.000000    1.000000    1.000000
     1.000000    1.000000    1.000000    1.000000    1.000000    1.000000
     1.000000    1.000000    1.000000    1.000000    1.000000    1.000000
     1.000000    1.000000    1.000000    1.000000    1.000000    1.000000
     1.000000    1.000000    1.000000    1.000000    1.000002    1.000570
     1.001184    1.001405    1.002025    1.003484    1.004067    1.005322
     1.009425    1.010972    1.013710    1.015284    1.019844    1.024219
     1.033028    1.036503    1.044531    1.047667    1.049765    1.067235
     1.070262    1.120779    1.141943    1.166328    1.210929    1.234217
     1.322676    1.397581    1.562797    1.609637    1.693132    1.894462
     2.184867    3.322387    3.508780    5.989194   14.650689   29.735505
    71.622291
**WARNING** Magnitude of eigenvalue 103 too large.  Replaced by    25.000000
**WARNING** Magnitude of eigenvalue 102 too large.  Replaced by    25.000000

 Minimum Search - Taking Simple RFO Step
 Searching for Lamda that Minimizes Along All modes
 Value Taken    Lamda =  -0.01406938
 Calculated Step too Large.  Step scaled by  0.360970
 Step Taken.  Stepsize is  0.300000

                             Maximum     Tolerance    Cnvgd?
         Gradient           0.032474      0.000300      NO
         Displacement       0.090228      0.001200      NO
         Energy change     -0.005831      0.000001      NO

 ----------------------------------------------------------------
             Standard Nuclear Orientation (Angstroms)
    I     Atom           X                Y                Z
 ----------------------------------------------------------------
    1      Fe     -2.1706577327     8.4552964767     5.1656521582
    2      N      -2.1196561109    10.2734713897     5.8338566221
    3      C      -1.8717476693    10.7656833326     4.5206337462
    4      N      -2.9016184136    11.6391924767     4.2016423793
    5      C      -3.7304939656    11.7621769554     5.3034332398
    6      C      -3.2580432134    10.9196876872     6.3165267029
    7      H      -4.5235011453    12.5038302955     5.3340875769
    8      H      -3.6065499178    10.7823638210     7.3201599849
    9      H      -0.8483605610    10.9584934821     4.1195609448
   10      H      -3.0213963678    12.1106427658     3.2971805147
   11      H      -7.0854595067     8.4727503701     3.1641826332
   12      C      -6.3079496416     7.8657518102     3.6063993798
   13      H      -4.6238309134     8.5902627269     2.5553409182
   14      N      -5.0116070488     8.0376286913     3.3343592666
   15      C      -6.3960691698     6.7772026212     4.5543255994
   16      C      -4.2399545082     7.0664395581     4.1483910142
   17      H      -7.2840992386     6.3866595033     4.9696359955
   18      N      -5.1676245572     6.3447013739     4.8395569908
   19      H      -3.3377058284     6.6198994018     3.7612521511
   20      H      -4.4849043279    13.3523231146    11.2329406130
   21      C      -4.4692606007    13.7277898129    12.2776268605
   22      H      -2.4879611136    13.1839336698    12.9970521142
   23      N      -3.4131826092    13.6316352006    13.1630032533
   24      C      -5.4673435373    14.5952223011    12.9259839405
   25      C      -3.7449340993    14.4115104309    14.2757198195
   26      H      -6.4469530135    14.9058543581    12.5306598875
   27      N      -5.0160478726    14.9974773050    14.1527595102
   28      H      -3.1037161693    14.4714691956    15.1795564673
   29      H      -0.1582983591     6.4102200904     5.8883830246
   30      C       0.5851907156     6.6144344360     6.6457034620
   31      H       0.7082086633     8.7844739395     6.4718574421
   32      N       1.1253877877     7.9204667374     6.8371993419
   33      C       1.3995627956     5.7561763136     7.3735396026
   34      C       2.1920653092     7.8076324999     7.7075103991
   35      H       1.4048885141     4.6750853187     7.4161845609
   36      N       2.3923430543     6.4990955121     7.9752051458
   37      H       2.7618003509     8.6428350100     8.1146067396
 ----------------------------------------------------------------
 Nuclear Repulsion Energy =  1646.5162454936 hartrees
 There are       85 alpha and       82 beta electrons


 *******************************************
 **  MAXIMUM OPTIMIZATION CYCLES REACHED  **
 *******************************************

 Q-Chem fatal error occurred in module 0, line  456:

 Maximum optimization cycles reached

