
Running Job 1 of 1 FeHis4_opt_mixed_gga.in
qchem FeHis4_opt_mixed_gga.in_7210.0 /scr/c295_lal/137025/qchem7210/ 1
/usr/software/qchem_511/exe/qcprog.exe_s FeHis4_opt_mixed_gga.in_7210.0 /scr/c295_lal/137025/qchem7210/
Check license passed

                  Welcome to Q-Chem
     A Quantum Leap Into The Future Of Chemistry


 Q-Chem 5.1, Q-Chem, Inc., Pleasanton, CA (2018)

 Yihan Shao,  Zhengting Gan,  E. Epifanovsky,  A. T. B. Gilbert,  M. Wormit,  
 J. Kussmann,  A. W. Lange,  A. Behn,  Jia Deng,  Xintian Feng,  D. Ghosh,  
 M. Goldey,  P. R. Horn,  L. D. Jacobson,  I. Kaliman,  T. Kus,  A. Landau,  
 Jie Liu,  E. I. Proynov,  R. M. Richard,  R. P. Steele,  E. J. Sundstrom,  
 H. L. Woodcock III,  P. M. Zimmerman,  D. Zuev,  B. Albrecht,  E. Alguire,  
 S. A. Baeppler,  D. Barton,  Z. Benda,  Y. A. Bernard,  E. J. Berquist,  
 K. B. Bravaya,  H. Burton,  D. Casanova,  Chun-Min Chang,  Yunqing Chen,  
 A. Chien,  K. D. Closser,  M. P. Coons,  S. Coriani,  S. Dasgupta,  
 A. L. Dempwolff,  M. Diedenhofen,  Hainam Do,  R. G. Edgar,  Po-Tung Fang,  
 S. Faraji,  S. Fatehi,  Qingguo Feng,  K. D. Fenk,  J. Fosso-Tande,  
 Qinghui Ge,  A. Ghysels,  G. Gidofalvi,  J. Gomes,  J. Gonthier,  A. Gunina,  
 D. Hait,  M. W. D. Hanson-Heine,  P. H. P. Harbach,  A. W. Hauser,  
 J. E. Herr,  E. G. Hohenstein,  Z. C. Holden,  Kerwin Hui,  B. C. Huynh,  
 T.-C. Jagau,  Hyunjun Ji,  B. Kaduk,  K. Khistyaev,  Jaehoon Kim,  
 P. Klunzinger,  K. Koh,  D. Kosenkov,  L. Koulias,  T. Kowalczyk,  
 C. M. Krauter,  A. Kunitsa,  Ka Un Lao,  A. Laurent,  K. V. Lawler,  
 Joonho Lee,  D. Lefrancois,  S. Lehtola,  D. S. Levine,  Yi-Pei Li,  
 You-Sheng Lin,  Fenglai Liu,  E. Livshits,  A. Luenser,  P. Manohar,  
 E. Mansoor,  S. F. Manzer,  Shan-Ping Mao,  Yuezhi Mao,  N. Mardirossian,  
 A. V. Marenich,  T. Markovich,  L. A. Martinez-Martinez,  S. A. Maurer,  
 N. J. Mayhall,  S. C. McKenzie,  J.-M. Mewes,  A. F. Morrison,  
 J. W. Mullinax,  K. Nanda,  T. S. Nguyen-Beck,  R. Olivares-Amaya,  
 J. A. Parkhill,  T. M. Perrine,  F. Plasser,  P. Pokhilko,  S. Prager,  
 A. Prociuk,  E. Ramos,  D. R. Rehn,  F. Rob,  M. Schneider,  N. Sergueev,  
 S. M. Sharada,  S. Sharma,  D. W. Small,  T. Stauch,  T. Stein,  
 Yu-Chuan Su,  A. J. W. Thom,  A. Tkatchenko,  T. Tsuchimochi,  N. M. Tubman,  
 L. Vogt,  M. L. Vidal,  O. Vydrov,  M. A. Watson,  J. Wenzel,  
 M. de Wergifosse,  T. A. Wesolowski,  A. White,  J. Witte,  A. Yamada,  
 Jun Yang,  K. Yao,  S. Yeganeh,  S. R. Yost,  Zhi-Qiang You,  A. Zech,  
 Igor Ying Zhang,  Xing Zhang,  Yan Zhao,  Ying Zhu,  B. R. Brooks,  
 G. K. L. Chan,  C. J. Cramer,  M. S. Gordon,  W. J. Hehre,  A. Klamt,  
 M. W. Schmidt,  C. D. Sherrill,  D. G. Truhlar,  A. Aspuru-Guzik,  R. Baer,  
 A. T. Bell,  N. A. Besley,  Jeng-Da Chai,  A. E. DePrince, III,  
 R. A. DiStasio Jr.,  A. Dreuw,  B. D. Dunietz,  T. R. Furlani,  
 Chao-Ping Hsu,  Yousung Jung,  Jing Kong,  D. S. Lambrecht,  WanZhen Liang,  
 C. Ochsenfeld,  V. A. Rassolov,  L. V. Slipchenko,  J. E. Subotnik,  
 T. Van Voorhis,  J. M. Herbert,  A. I. Krylov,  P. M. W. Gill,  M. Head-Gordon

 Contributors to earlier versions of Q-Chem not listed above: 
 R. D. Adamson,  B. Austin,  J. Baker,  G. J. O. Beran,  K. Brandhorst,  
 S. T. Brown,  E. F. C. Byrd,  A. K. Chakraborty,  C.-L. Cheng,  
 Siu Hung Chien,  D. M. Chipman,  D. L. Crittenden,  H. Dachsel,  
 R. J. Doerksen,  A. D. Dutoi,  L. Fusti-Molnar,  W. A. Goddard III,  
 A. Golubeva-Zadorozhnaya,  S. R. Gwaltney,  G. Hawkins,  A. Heyden,  
 S. Hirata,  G. Kedziora,  F. J. Keil,  C. Kelley,  Jihan Kim,  R. A. King,  
 R. Z. Khaliullin,  P. P. Korambath,  W. Kurlancheek,  A. M. Lee,  M. S. Lee,  
 S. V. Levchenko,  Ching Yeh Lin,  D. Liotard,  R. C. Lochan,  I. Lotan,  
 P. E. Maslen,  N. Nair,  D. P. O'Neill,  D. Neuhauser,  E. Neuscamman,  
 C. M. Oana,  R. Olson,  B. Peters,  R. Peverati,  P. A. Pieniazek,  
 Y. M. Rhee,  J. Ritchie,  M. A. Rohrdanz,  E. Rosta,  N. J. Russ,  
 H. F. Schaefer III,  N. E. Schultz,  N. Shenvi,  A. C. Simmonett,  A. Sodt,  
 D. Stuck,  K. S. Thanthiriwatte,  V. Vanovschi,  Tao Wang,  A. Warshel,  
 C. F. Williams,  Q. Wu,  X. Xu,  W. Zhang

 Please cite Q-Chem as follows:
 Y. Shao et al., Mol. Phys. 113, 184-215 (2015)
 DOI: 10.1080/00268976.2014.952696

 Q-Chem 5.1.1 for Intel X86 EM64T Linux

 Parts of Q-Chem use Armadillo 8.300.2 (Tropical Shenanigans).
 http://arma.sourceforge.net/

 Q-Chem begins on Wed Oct 31 00:10:36 2018  

Host: cub-0-6.local
0

     Scratch files written to /scr/c295_lal/137025/qchem7210//
 Aug318 |scratch|qcdevops|jenkins|workspace|build_RNUM -1
Processing $rem in /usr/software/qchem_511/config/preferences.
 MEM_TOTAL  2000 
Input Ideriv = 2
Curr. Ideriv = -1
Max.  Ideriv = 2
Symmetry disabled for mixed basis and EFP jobs.

Checking the input file for inconsistencies... 	...done.

--------------------------------------------------------------
User input:
--------------------------------------------------------------
$molecule
3 4
Fe        -2.02188        8.67392        5.29699
N         -1.00586       12.49034        5.96233
C         -1.09101       11.63863        4.92061
N         -2.35758       11.47719        4.49788
C         -3.10966       12.25082        5.29529
C         -2.27597       12.87503        6.19604
H         -4.18471       12.35236        5.22619
H         -2.57367       13.56458        6.97439
H         -0.23802       11.14270        4.47677
H         -2.68725       10.87430        3.71210
H         -6.69688       10.49875        5.73540
C         -6.21811        9.67053        6.24071
H         -4.43511        9.41418        5.08715
N         -5.04434        9.12737        5.88410
C         -6.68608        8.99216        7.34379
C         -4.81620        8.13753        6.76571
H         -7.60843        9.18779        7.87375
N         -5.80521        8.02765        7.67553
H         -3.94067        7.50246        6.74844
H         -4.45295       11.84757        8.00825
C         -4.17766       11.10860        8.74811
H         -2.26722       10.44998        8.04178
N         -3.03943       10.39795        8.74217
C         -4.91561       10.72725        9.84571
C         -3.10019        9.60335        9.82570
H         -5.88483       11.11237       10.13223
N         -4.23936        9.78030       10.52481
H         -2.32626        8.90233       10.10609
H         -1.36181        7.50756        7.52958
C         -0.43836        7.89911        7.93473
H          0.17865        9.26687        6.40863
N          0.34070        8.81100        7.33317
C          0.14393        7.56460        9.13674
C          1.37475        9.01644        8.16827
H         -0.23785        6.85601        9.85936
N          1.28451        8.26668        9.28535
H          2.18615        9.70351        7.96782
$end

$rem
BASIS = mixed
METHOD  = BLYP
JOBTYPE = OPT
MAX_SCF_CYCLES = 5000
$end

$BASIS
Fe 1
VDZ
****
N 2
6-31G
****
C 3
6-31G
****
N 4
6-31G
****
C 5
6-31G
****
C 6
6-31G
****
H 7
STO-3G
****
H 8
STO-3G
****
H 9
STO-3G
****
H 10
STO-3G
****
H 11
STO-3G
****
C 12
6-31G
****
H 13
STO-3G
****
N 14
6-31G
****
C 15
6-31G
****
C 16
6-31G
****
H 17
STO-3G
****
N 18
6-31G
****
H 19
STO-3G
****
H 20
STO-3G
****
C 21
6-31G
****
H 22
STO-3G
****
N 23
6-31G
****
C 24
6-31G
****
C 25
6-31G
****
H 26
STO-3G
****
N 27
6-31G
****
H 28
STO-3G
****
H 29
STO-3G
****
C 30
6-31G
****
H 31
STO-3G
****
N 32
6-31G
****
C 33
6-31G
****
C 34
6-31G
****
H 35
STO-3G
****
N 36
6-31G
****
H 37
STO-3G
****
--------------------------------------------------------------
 ----------------------------------------------------------------
             Standard Nuclear Orientation (Angstroms)
    I     Atom           X                Y                Z
 ----------------------------------------------------------------
    1      Fe     -2.0218800000     8.6739200000     5.2969900000
    2      N      -1.0058600000    12.4903400000     5.9623300000
    3      C      -1.0910100000    11.6386300000     4.9206100000
    4      N      -2.3575800000    11.4771900000     4.4978800000
    5      C      -3.1096600000    12.2508200000     5.2952900000
    6      C      -2.2759700000    12.8750300000     6.1960400000
    7      H      -4.1847100000    12.3523600000     5.2261900000
    8      H      -2.5736700000    13.5645800000     6.9743900000
    9      H      -0.2380200000    11.1427000000     4.4767700000
   10      H      -2.6872500000    10.8743000000     3.7121000000
   11      H      -6.6968800000    10.4987500000     5.7354000000
   12      C      -6.2181100000     9.6705300000     6.2407100000
   13      H      -4.4351100000     9.4141800000     5.0871500000
   14      N      -5.0443400000     9.1273700000     5.8841000000
   15      C      -6.6860800000     8.9921600000     7.3437900000
   16      C      -4.8162000000     8.1375300000     6.7657100000
   17      H      -7.6084300000     9.1877900000     7.8737500000
   18      N      -5.8052100000     8.0276500000     7.6755300000
   19      H      -3.9406700000     7.5024600000     6.7484400000
   20      H      -4.4529500000    11.8475700000     8.0082500000
   21      C      -4.1776600000    11.1086000000     8.7481100000
   22      H      -2.2672200000    10.4499800000     8.0417800000
   23      N      -3.0394300000    10.3979500000     8.7421700000
   24      C      -4.9156100000    10.7272500000     9.8457100000
   25      C      -3.1001900000     9.6033500000     9.8257000000
   26      H      -5.8848300000    11.1123700000    10.1322300000
   27      N      -4.2393600000     9.7803000000    10.5248100000
   28      H      -2.3262600000     8.9023300000    10.1060900000
   29      H      -1.3618100000     7.5075600000     7.5295800000
   30      C      -0.4383600000     7.8991100000     7.9347300000
   31      H       0.1786500000     9.2668700000     6.4086300000
   32      N       0.3407000000     8.8110000000     7.3331700000
   33      C       0.1439300000     7.5646000000     9.1367400000
   34      C       1.3747500000     9.0164400000     8.1682700000
   35      H      -0.2378500000     6.8560100000     9.8593600000
   36      N       1.2845100000     8.2666800000     9.2853500000
   37      H       2.1861500000     9.7035100000     7.9678200000
 ----------------------------------------------------------------
 Nuclear Repulsion Energy =  1965.3852974557 hartrees
 There are       85 alpha and       82 beta electrons

 Q-Chem warning in module forms1/BasisType.C, line 1703:

 Setting pure/cartesian flag to 2111 for general basis


 Requested basis set is non-standard
 There are 85 shells and 217 basis functions

 Total QAlloc Memory Limit   2000 MB
 Mega-Array Size       188 MB
 MEM_STATIC part       192 MB
 A cutoff of  1.0D-11 yielded   2679 shell pairs
 There are     18859 function pairs (     19217 Cartesian)
 
 -------------------------------------------------------
 OpenMP Integral Computing Module                       
 Release: version 1.0, May 2013, Q-Chem Inc. Pittsburgh 
 -------------------------------------------------------
 Integral Job Info:
 Integral job number is                      11
 Integral operator is                         1
 short-range coefficients                     0
 long-range coefficients              100000000
 Omega coefficients                           0
 if combine SR and LR in K                    0
 Integral screening is                        0
 Integral computing path is                   2
 max size of driver memory is            800000
 size of driver memory is                593474
 size of scratch memory is             29634545
 max col of scratch BK array               1296
 max len of scratch array in speh3          155
 max len of scratch index in speh4           18
 max int batch size is                      520
 min int batch size is                       52
 fixed nKL is                                45
 max L of basis functions is                  2
 order of int derivative is                   0
 number of shells is                         85
 number of basis is                         219
 number of cartesian basis is               219
 number of contracted shell pairs          2679
 number of primitive shell pairs          13176
 maxK2 (contraction) of shell pair           36
 max number of K2 of shell pair               1
 max number of CS2 of shell pair            423
 max number of PS2 of shell pair           2118
 mem total for path MDJ                  577922
 -------------------------------------------------------
 Smallest overlap matrix eigenvalue = 3.55E-03

 Scale SEOQF with 1.000000e-02/1.000000e-02/1.000000e-02

 Standard Electronic Orientation quadrupole field applied
 Nucleus-field energy     =     0.0000000262 hartrees
 Guess MOs from core Hamiltonian diagonalization

 -----------------------------------------------------------------------
  General SCF calculation program by
  Eric Jon Sundstrom, Paul Horn, Yuezhi Mao, Dmitri Zuev, Alec White,
  David Stuck, Shaama M.S., Shane Yost, Joonho Lee, David Small,
  Daniel Levine, Susi Lehtola, Hugh Burton, Evgeny Epifanovsky
 -----------------------------------------------------------------------
 Exchange:  B88      Correlation:  LYP
 Using SG-1 standard quadrature grid
 using 12 threads for integral computing
 -------------------------------------------------------
 OpenMP Integral computing Module                
 Release: version 1.0, May 2013, Q-Chem Inc. Pittsburgh 
 -------------------------------------------------------
 -------------------------------------------------------
 OpenMP BLAS3 based DFT computing Module                
 Release: version 1.0, May 2013, Q-Chem Inc. Pittsburgh 
 -------------------------------------------------------
 A unrestricted SCF calculation will be
 performed using DIIS
 SCF converges when DIIS error is below 1.0e-08
 ---------------------------------------
  Cycle       Energy         DIIS error
 ---------------------------------------
    1   -1973.4105639475      3.67e-02  
    2   -1671.3372583031      4.36e-02  
    3   -1791.1000511675      5.62e-02  
    4   -2117.0747878191      3.19e-02  
    5   -1962.5007792522      5.95e-02  
    6   -2063.4796451929      4.03e-02  
    7   -2105.3739113124      3.18e-02  
    8   -2119.3141691992      2.69e-02  
    9   -2136.0697047941      2.18e-02  
   10   -2060.2850870309      3.36e-02  
   11   -2151.5400867960      1.90e-02  
   12   -2154.8226769800      1.68e-02  
   13   -2153.4356199301      1.72e-02  
   14   -2150.4248713596      1.69e-02  
   15   -2158.4851067205      1.43e-02  
   16   -2158.7120279743      1.08e-02  
   17   -2148.9418678705      2.09e-02  
   18   -2147.0417320972      2.02e-02  
   19   -2154.8511025872      1.74e-02  
   20   -2155.8203729519      1.68e-02  
   21   -2155.0339140149      1.71e-02  
   22   -2155.5506852214      1.71e-02  
   23   -2155.9455107411      1.68e-02  
   24   -2155.9575707153      1.68e-02  
   25   -2156.1288490460      1.68e-02  
   26   -2154.7601570231      1.72e-02  
   27   -2154.3983291587      1.81e-02  
   28   -2155.8781290802      1.70e-02  
   29   -2156.0178820738      1.69e-02  
   30   -2154.0311700277      1.75e-02  
   31   -2154.9042931645      1.72e-02  
   32   -2045.2814529764      2.23e-02  
   33   -2088.9528524852      2.91e-02  
   34   -2151.3587688859      1.79e-02  
   35   -2149.5394801534      1.84e-02  
   36   -2150.6039695367      1.82e-02  
   37   -2150.5751041310      1.82e-02  
   38   -2150.3791663303      1.84e-02  
   39   -2150.3305253753      1.84e-02  
   40   -2150.6769716153      1.83e-02  
   41   -2151.3687042154      1.80e-02  
   42   -2150.7666602514      1.83e-02  
   43   -2150.3820897782      1.85e-02  
   44   -2151.2604685846      1.81e-02  
   45   -2152.9346582102      1.77e-02  
   46   -2152.7290437064      1.75e-02  
   47   -2151.0961735192      1.79e-02  
   48   -1997.7925733815      3.83e-02  
   49   -2144.9947585091      1.70e-02  
   50   -2091.8573558338      3.12e-02  
   51   -2152.0792950803      1.84e-02  
   52   -2153.4557588168      1.79e-02  
   53   -2153.5491453411      1.78e-02  
   54   -2153.1600289874      1.79e-02  
   55   -2153.0845844456      1.80e-02  
   56   -2153.1205835815      1.80e-02  
   57   -2153.2050161628      1.80e-02  
   58   -2153.4845261048      1.79e-02  
   59   -2152.5792715901      1.80e-02  
   60   -2153.5473958538      1.79e-02  
   61   -2153.7353985913      1.79e-02  
   62   -2153.5646661041      1.78e-02  
   63   -2153.1969073051      1.84e-02  
   64   -2151.9066180281      1.73e-02  
   65   -2123.1300062326      2.48e-02  
   66   -2139.5900130892      2.08e-02  
   67   -2157.1787294894      1.49e-02  
   68   -2159.6474845282      1.13e-02  
   69   -2159.2750915362      1.53e-02  
   70   -2157.4474883201      1.54e-02  
   71   -2158.4354646843      1.52e-02  
   72   -2158.0655003289      1.54e-02  
   73   -2157.8221077884      1.54e-02  
   74   -2157.6176497766      1.56e-02  
   75   -2157.8865732108      1.53e-02  
   76   -2157.2060411806      1.56e-02  
   77   -2155.9603142440      1.60e-02  
   78   -2157.0188153744      1.56e-02  
   79   -2154.4418298342      1.68e-02  
   80   -2153.2081978739      1.79e-02  
   81   -2158.2505022055      1.34e-02  
   82   -2156.4036965924      1.59e-02  
   83   -2156.6929060819      1.58e-02  
   84   -2154.0845300359      1.71e-02  
   85   -2157.0304297073      1.49e-02  
   86   -2158.5329729396      1.49e-02  
   87   -2158.0039381637      1.49e-02  
   88   -2158.3632709529      1.46e-02  
   89   -2159.0202953529      1.45e-02  
   90   -2157.5602526247      1.53e-02  
   91   -2158.6279738857      1.46e-02  
   92   -2158.6094872836      1.46e-02  
   93   -2158.8136562488      1.47e-02  
   94   -2157.9891076899      1.53e-02  
   95   -2158.3014485184      1.48e-02  
   96   -2158.3158262820      1.49e-02  
   97   -2059.8235995901      3.34e-02  
   98   -2151.4175651084      1.04e-02  
   99   -2149.5321652117      2.06e-02  
  100   -2147.3857184345      2.15e-02  
  101   -2147.9203501439      2.12e-02  
  102   -2139.1394262833      2.39e-02  
  103   -2145.0206484192      2.15e-02  
  104   -2145.0727683952      2.15e-02  
  105   -2141.8778452330      2.46e-02  
  106   -2140.7605187325      2.54e-02  
  107   -2141.6769721057      2.50e-02  
  108   -2139.1786183282      2.37e-02  
  109   -2144.5149382699      2.20e-02  
  110   -2139.8274515248      2.36e-02  
  111   -2142.1522889630      2.37e-02  
  112   -2102.8577756428      2.72e-02  
  113   -2152.9902652776      1.77e-02  
  114   -2010.5626242273      3.31e-02  
  115   -2134.0578560027      1.63e-02  
  116   -2106.2479122138      3.16e-02  
  117   -2144.6967073039      2.11e-02  
  118   -2150.4690154692      1.94e-02  
  119   -2149.3504653773      1.96e-02  
  120   -2150.4671276740      1.94e-02  
  121   -2150.4746055183      1.93e-02  
  122   -2150.4806665396      1.93e-02  
  123   -2150.4689272460      1.94e-02  
  124   -2150.3663916581      1.94e-02  
  125   -2150.3257020954      1.94e-02  
  126   -2150.3742689922      1.94e-02  
  127   -2149.7772730978      1.98e-02  
  128   -2089.8048671078      2.78e-02  
  129   -2149.4313286481      1.91e-02  
  130   -2130.6844800990      2.50e-02  
  131   -1908.1201680633      4.30e-02  
  132   -2141.6139902818      1.61e-02  
  133   -2148.0470347482      1.97e-02  
  134   -2154.1118085253      1.77e-02  
  135   -2152.6199323757      1.83e-02  
  136   -2155.5331998138      1.74e-02  
  137   -2152.1558006632      1.84e-02  
  138   -2154.1607993194      1.78e-02  
  139   -2154.1708581539      1.78e-02  
  140   -2152.5740653092      1.81e-02  
  141   -2152.6969682966      1.83e-02  
  142   -2153.9236569343      1.81e-02  
  143   -2154.5477831865      1.76e-02  
  144   -2127.4428761136      3.14e-02  
  145   -2139.9050370318      2.54e-02  
  146   -2147.0591922416      2.18e-02  
  147   -2146.3879374133      2.18e-02  
  148   -2043.3958594991      2.31e-02  
  149   -2094.0503092186      3.33e-02  
  150   -2150.8103271276      1.89e-02  
  151   -2151.9022841976      1.85e-02  
  152   -2146.8846047672      2.05e-02  
  153   -2149.6647005025      2.01e-02  
  154   -2150.1982541868      1.96e-02  
  155   -2150.4321748003      1.95e-02  
  156   -2150.3301660602      1.96e-02  
  157   -2150.5129508052      1.97e-02  
  158   -2150.4095120208      1.97e-02  
  159   -2139.3442834883      2.44e-02  
  160   -2146.0604211731      2.20e-02  
  161   -2146.9222641638      2.20e-02  
  162   -2144.0487036356      2.33e-02  
  163   -2139.9156289728      2.77e-02  
  164   -1889.5300060082      4.90e-02  
  165   -2089.9006821223      3.35e-02  
  166   -2149.4874830289      1.55e-02  
  167   -2097.8282380098      2.99e-02  
  168   -2153.6554311243      1.51e-02  
  169   -2142.8377522998      1.35e-02  
  170   -2154.6602238708      1.72e-02  
  171   -2154.7837662415      1.73e-02  
  172   -2154.8132641774      1.70e-02  
  173   -2154.8227110062      1.70e-02  
  174   -2154.6398297410      1.72e-02  
  175   -2154.5397399488      1.72e-02  
  176   -2154.3401254069      1.74e-02  
  177   -2154.6945065795      1.71e-02  
  178   -2155.8955435366      1.69e-02  
  179   -2154.2072124553      1.74e-02  
  180   -2155.3280588347      1.72e-02  
  181   -2154.3367429207      1.76e-02  
  182   -2112.1544487163      2.72e-02  
  183   -2125.0583743714      2.35e-02  
  184   -2131.2401818106      3.05e-02  
  185   -2027.0328300482      3.80e-02  
  186   -2142.8412063065      1.28e-02  
  187   -2090.4475903029      3.44e-02  
  188   -2151.1054068758      1.90e-02  
  189   -2152.1707871218      1.88e-02  
  190   -2149.3777809733      2.07e-02  
  191   -2149.7260247164      2.05e-02  
  192   -2149.5914774762      2.06e-02  
  193   -2148.5827478347      2.12e-02  
  194   -2147.4485285561      2.19e-02  
  195   -2147.7428104456      2.17e-02  
  196   -2137.4991566708      2.51e-02  
  197   -2137.0849944913      2.57e-02  
  198   -2140.1274817250      2.40e-02  
  199   -2112.7758148852      3.09e-02  
  200   -2127.2429457605      2.62e-02  
  201   -2131.1909374890      2.56e-02  
  202   -1974.5625730579      4.01e-02  
  203   -2113.2075025561      2.67e-02  
  204   -2140.6584573804      2.19e-02  
  205   -2151.2533452073      1.90e-02  
  206   -2153.0965940483      1.80e-02  
  207   -2153.7207791998      1.82e-02  
  208   -2154.3335002898      1.76e-02  
  209   -2154.1408961688      1.78e-02  
  210   -2154.1427274279      1.78e-02  
  211   -2154.1326423543      1.78e-02  
  212   -2153.9171753736      1.78e-02  
  213   -2153.6831328113      1.80e-02  
  214   -2152.8583570270      1.82e-02  
  215   -2154.5271183270      1.80e-02  
  216   -2153.5225091737      1.82e-02  
  217   -2152.2480039562      1.89e-02  
  218   -2084.6617358049      3.23e-02  
  219   -2003.5085679431      4.05e-02  
  220   -2151.1663327598      1.04e-02  
  221   -2119.8464703915      3.48e-02  
  222   -2150.4284377721      1.96e-02  
  223   -2151.5156192500      2.00e-02  
  224   -2150.8333337400      1.96e-02  
  225   -2150.2439793954      1.99e-02  
  226   -2150.4858181057      2.00e-02  
  227   -2149.8814192245      2.05e-02  
  228   -2150.6359506173      2.03e-02  
  229   -2150.4703585074      2.05e-02  
  230   -2151.0325046229      2.03e-02  
  231   -2150.0605922479      2.15e-02  
  232   -2141.5668608180      2.66e-02  
  233   -2138.9293624972      2.80e-02  
  234   -2146.5785953066      2.33e-02  
  235   -2149.0895557829      2.20e-02  
  236   -2017.6418842240      3.31e-02  
  237   -2124.3289948948      3.12e-02  
  238   -2148.1029313694      2.06e-02  
  239   -2154.3415595867      1.86e-02  
  240   -2148.9499989462      2.00e-02  
  241   -2152.2610811401      1.88e-02  
  242   -2151.4507829970      1.88e-02  
  243   -2153.9728546547      1.80e-02  
  244   -2149.9546751864      1.93e-02  
  245   -2150.1348316773      1.92e-02  
  246   -2150.5198467423      1.92e-02  
  247   -2151.1123089521      1.88e-02  
  248   -2150.5928003334      1.92e-02  
  249   -2149.7894488728      1.95e-02  
  250   -2149.8319789647      1.97e-02  
  251   -2150.6662095362      1.97e-02  
  252   -1995.3853846732      3.73e-02  
  253   -2145.9892253649      1.78e-02  
  254   -2154.8697425083      1.66e-02  
  255   -2145.8484313112      1.07e-02  
  256   -2090.5131226619      2.83e-02  
  257   -2153.4888039442      1.77e-02  
  258   -2151.3840004721      1.83e-02  
  259   -2151.5565936218      1.85e-02  
  260   -2151.3455081241      1.82e-02  
  261   -2153.0434543142      1.79e-02  
  262   -2152.5128128500      1.83e-02  
  263   -2152.4123538129      1.81e-02  
  264   -2153.3909854750      1.77e-02  
  265   -2152.6386310354      1.80e-02  
  266   -2153.0215805378      1.78e-02  
  267   -2153.0066497741      1.79e-02  
  268   -2152.1568060162      1.81e-02  
  269   -2150.1539822504      1.93e-02  
  270   -2151.6019045257      1.87e-02  
  271   -1987.4434427508      4.00e-02  
  272   -2133.0116688730      2.03e-02  
  273   -2136.6613305368      2.72e-02  
  274   -2148.6476625252      2.12e-02  
  275   -2148.7063424125      2.08e-02  
  276   -2146.2512231602      2.16e-02  
  277   -2148.5053920126      2.08e-02  
  278   -2146.8965382501      2.16e-02  
  279   -2148.3425446781      2.06e-02  
  280   -2148.8668898935      2.06e-02  
  281   -2149.0450367857      2.04e-02  
  282   -2149.0468922199      2.04e-02  
  283   -2150.2128570581      2.04e-02  
  284   -2147.8046962436      2.08e-02  
  285   -2148.4770610980      2.07e-02  
  286   -2148.4625994472      2.08e-02  
  287   -2114.4645052825      3.02e-02  
  288   -1873.0136691061      5.16e-02  
  289   -2143.0337483177      1.54e-02  
  290   -2101.4746874209      3.80e-02  
  291   -2151.4182231531      1.95e-02  
  292   -2152.8140430369      1.86e-02  
  293   -2154.0458330565      1.86e-02  
  294   -2152.9100208759      1.86e-02  
  295   -2154.6360317594      1.82e-02  
  296   -2154.1178159197      1.84e-02  
  297   -2154.1473180636      1.84e-02  
  298   -2154.9355055021      1.80e-02  
  299   -2154.9588619855      1.80e-02  
  300   -2155.0213696029      1.80e-02  
  301   -2154.9913797567      1.80e-02  
  302   -2154.6083647855      1.81e-02  
  303   -2152.6580779857      1.92e-02  
  304   -2150.6745219055      1.91e-02  
  305   -1998.3984124130      3.55e-02  
  306   -2130.9323368148      2.14e-02  
  307   -2159.1994106780      1.46e-02  
  308   -2151.7206495484      1.80e-02  
  309   -2154.3129444609      1.62e-02  
  310   -2158.8446664322      1.56e-02  
  311   -2157.6977244120      1.52e-02  
  312   -2158.4083125773      1.46e-02  
  313   -2158.1169012317      1.48e-02  
  314   -2157.9705451039      1.50e-02  
  315   -2157.6931078866      1.53e-02  
  316   -2157.5277113332      1.54e-02  
  317   -2157.5620419792      1.54e-02  
  318   -2152.1593501484      1.77e-02  
  319   -2154.3271080187      1.55e-02  
  320   -2156.8129493636      1.49e-02  
  321   -2062.5736675498      3.10e-02  
  322   -2158.5962769798      1.54e-02  
  323   -2160.6472929289      1.36e-02  
  324   -2156.2750273842      1.57e-02  
  325   -2158.3219936805      1.48e-02  
  326   -2158.9972386343      1.41e-02  
  327   -2165.2641234929      5.40e-03  
  328   -2157.2858848320      1.66e-02  
  329   -2158.9923535721      1.42e-02  
  330   -2159.5464803936      1.39e-02  
  331   -2160.1472894474      1.36e-02  
  332   -2160.0885808704      1.35e-02  
  333   -2158.9645211011      1.45e-02  
  334   -2158.5928204656      1.44e-02  
  335   -2159.4340932546      1.41e-02  
  336   -2158.9261344310      1.43e-02  
  337   -2161.3869619982      1.27e-02  
  338   -2161.4353258055      1.24e-02  
  339   -2160.8433361445      1.23e-02  
  340   -2160.9357977911      1.27e-02  
  341   -2161.2018947145      1.26e-02  
  342   -2161.6521341232      1.23e-02  
  343   -2140.8463037298      1.72e-02  
  344   -2155.1731780724      1.76e-02  
  345   -2156.2962078305      1.68e-02  
  346   -2155.3743738924      1.72e-02  
  347   -2155.1616546252      1.70e-02  
  348   -2154.8330211321      1.74e-02  
  349   -2155.7596316632      1.75e-02  
  350   -2156.0823019952      1.72e-02  
  351   -2155.6988919715      1.77e-02  
  352   -2154.8432266085      1.73e-02  
  353   -2155.4837372705      1.71e-02  
  354   -2155.5634373086      1.71e-02  
  355   -2150.8662270676      1.86e-02  
  356   -2154.1749415800      1.76e-02  
  357   -2155.3314822795      1.75e-02  
  358   -2153.3185464304      1.90e-02  
  359   -1939.5043278810      4.71e-02  
  360   -2146.4627760716      1.17e-02  
  361   -2097.5110407749      2.66e-02  
  362   -2152.0830361715      1.83e-02  
  363   -2153.0623946475      1.79e-02  
  364   -2151.8080628982      1.82e-02  
  365   -2151.7437206542      1.82e-02  
  366   -2151.7787992906      1.82e-02  
  367   -2151.8082053193      1.83e-02  
  368   -2151.8694123634      1.82e-02  
  369   -2151.8566876523      1.81e-02  
  370   -2152.6631211149      1.82e-02  
  371   -2151.7682662836      1.84e-02  
  372   -2151.7719827253      1.82e-02  
  373   -2152.6636356932      1.88e-02  
  374   -2150.8794955969      1.91e-02  
  375   -2153.1082495591      1.88e-02  
  376   -1994.7742730216      3.72e-02  
  377   -2125.0502212842      2.94e-02  
  378   -2154.1689156672      1.80e-02  
  379   -2154.4835778206      1.73e-02  
  380   -2155.0501319004      1.75e-02  
  381   -2154.1152743065      1.77e-02  
  382   -2155.6137890355      1.72e-02  
  383   -2154.6660741044      1.75e-02  
  384   -2154.7088696336      1.75e-02  
  385   -2154.8741458377      1.74e-02  
  386   -2154.3668524183      1.77e-02  
  387   -2154.7210763500      1.76e-02  
  388   -2153.6723811532      1.80e-02  
  389   -2154.1655131150      1.78e-02  
  390   -2154.5721362467      1.74e-02  
  391   -2155.9867148460      1.71e-02  
  392   -2093.9319704379      3.08e-02  
  393   -2098.2400698281      3.03e-02  
  394   -2158.8472695897      1.31e-02  
  395   -2163.4795314640      8.75e-03  
  396   -2157.5278848603      1.56e-02  
  397   -2158.1325230729      1.46e-02  
  398   -2157.3085804845      1.49e-02  
  399   -2157.7626797460      1.50e-02  
  400   -2157.3975773096      1.49e-02  
  401   -2157.5413860356      1.53e-02  
  402   -2158.6155718784      1.43e-02  
  403   -2158.3190242812      1.45e-02  
  404   -2157.9769680088      1.48e-02  
  405   -2158.2998523702      1.22e-02  
  406   -2164.9920168104      6.71e-03  
  407   -2163.3295733775      9.27e-03  
  408   -2161.4935156378      1.23e-02  
  409   -2162.1065988030      1.20e-02  
  410   -2160.5761424264      1.30e-02  
  411   -2164.4225664954      6.49e-03  
  412   -2158.6069271598      1.43e-02  
  413   -2158.6912954302      1.43e-02  
  414   -2159.0067709640      1.42e-02  
  415   -2159.1129340357      1.42e-02  
  416   -2158.8371588084      1.43e-02  
  417   -2158.6170060749      1.43e-02  
  418   -2158.9204188350      1.43e-02  
  419   -2159.0945341858      1.43e-02  
  420   -2158.8538279795      1.43e-02  
  421   -2158.6858392855      1.43e-02  
  422   -2157.5822836863      1.54e-02  
  423   -2154.3846372736      1.66e-02  
  424   -2156.2836183456      1.52e-02  
  425   -2158.0824107516      1.47e-02  
  426   -2158.2158458176      1.45e-02  
  427   -2061.7430293419      3.40e-02  
  428   -2149.5883207279      1.02e-02  
  429   -2147.1902833728      2.31e-02  
  430   -2148.4546812706      2.23e-02  
  431   -2149.8535102582      2.11e-02  
  432   -2149.8231951350      2.11e-02  
  433   -2149.8473856277      2.11e-02  
  434   -2149.9308770371      2.10e-02  
  435   -2149.4547275471      2.14e-02  
  436   -2149.9393586534      2.09e-02  
  437   -2150.7503913855      1.99e-02  
  438   -2151.1990303702      1.97e-02  
  439   -2143.1116584069      2.29e-02  
  440   -2150.1597013477      2.01e-02  
  441   -2112.0900206579      3.46e-02  
  442   -2110.8605213093      3.12e-02  
  443   -2149.8519946375      2.13e-02  
  444   -2034.5592470836      2.84e-02  
  445   -2151.5930747984      1.88e-02  
  446   -2154.8431696204      1.75e-02  
  447   -2156.2953403472      1.67e-02  
  448   -2155.9002135499      1.76e-02  
  449   -2158.1958970580      1.61e-02  
  450   -2157.7059667153      1.65e-02  
  451   -2157.1869060600      1.62e-02  
  452   -2159.1584175943      1.55e-02  
  453   -2157.7517943771      1.62e-02  
  454   -2158.8918915500      1.59e-02  
  455   -2159.2833580857      1.57e-02  
  456   -2157.1324692540      1.59e-02  
  457   -2156.7016040254      1.62e-02  
  458   -2151.9645013930      1.93e-02  
  459   -2152.4001168038      1.90e-02  
  460   -2077.3153491602      2.57e-02  
  461   -2152.5568105627      1.88e-02  
  462   -2152.4777713279      1.88e-02  
  463   -2150.7028707016      2.00e-02  
  464   -2147.9400424650      2.02e-02  
  465   -2152.3646843809      1.88e-02  
  466   -2152.5269256090      1.89e-02  
  467   -2152.1514876005      1.89e-02  
  468   -2149.0624252909      2.02e-02  
  469   -2142.7782022690      2.13e-02  
  470   -2146.3142724605      2.05e-02  
  471   -2146.6646504246      2.05e-02  
  472   -2147.2022568327      1.97e-02  
  473   -2150.5209906418      2.05e-02  
  474   -2155.0462802325      1.78e-02  
  475   -2154.3234366239      1.78e-02  
  476   -2005.1739249631      3.62e-02  
  477   -2143.1599109794      1.79e-02  
  478   -2148.7885289915      2.11e-02  
  479   -2158.1340430158      1.56e-02  
  480   -2153.2309062036      1.29e-02  
  481   -2151.7958724722      1.87e-02  
  482   -2153.2245501543      1.84e-02  
  483   -2153.7958068005      1.80e-02  
  484   -2153.5365596876      1.81e-02  
  485   -2153.4873385604      1.80e-02  
  486   -2152.5332420708      1.82e-02  
  487   -2152.5753430073      1.81e-02  
  488   -2152.5236840927      1.82e-02  
  489   -2152.6766148624      1.81e-02  
  490   -2152.6697095710      1.81e-02  
  491   -2152.6793382713      1.81e-02  
  492   -2154.7834348268      1.74e-02  
  493   -2130.0077373757      2.30e-02  
  494   -2153.0252464338      1.83e-02  
  495   -2153.4951668676      1.78e-02  
  496   -2013.5983619071      3.21e-02  
  497   -2144.8439953873      2.15e-02  
  498   -2151.0377899918      1.87e-02  
  499   -2151.3322040121      1.86e-02  
  500   -2149.9694363279      1.91e-02  
  501   -2149.4783735233      1.90e-02  
  502   -2149.3398811478      1.89e-02  
  503   -2149.4239572706      1.89e-02  
  504   -2149.3046099724      1.90e-02  
  505   -2149.4094100942      1.90e-02  
  506   -2149.5505811711      1.89e-02  
  507   -2149.3655426847      1.91e-02  
  508   -2145.8518615074      2.01e-02  
  509   -2149.3592211059      2.02e-02  
  510   -2151.6500015638      1.86e-02  
  511   -2147.0011906540      2.00e-02  
  512   -1897.4860215186      5.09e-02  
  513   -2145.2990831127      1.30e-02  
  514   -2089.1321680742      2.89e-02  
  515   -2152.4283479557      1.85e-02  
  516   -2151.6684380644      1.86e-02  
  517   -2151.4038777068      1.89e-02  
  518   -2151.3825778916      1.89e-02  
  519   -2151.2661177476      1.89e-02  
  520   -2152.9447375709      1.85e-02  
  521   -2149.3476846200      1.95e-02  
  522   -2149.7413941687      1.97e-02  
  523   -2151.1876287662      1.93e-02  
  524   -2152.5273192938      1.86e-02  
  525   -2152.8863103208      1.84e-02  
  526   -2152.9373161645      1.84e-02  
  527   -2152.4472798795      1.84e-02  
  528   -2156.3556954550      1.71e-02  
  529   -1996.0944347419      3.61e-02  
  530   -2125.7871018140      2.15e-02  
  531   -2151.4753279558      1.61e-02  
  532   -2145.9769743859      1.04e-02  
  533   -2137.3327061426      2.47e-02  
  534   -2144.9684200577      2.12e-02  
  535   -2145.3751725770      2.11e-02  
  536   -2148.5570389074      2.19e-02  
  537   -2148.7413547339      2.05e-02  
  538   -2149.0154070122      2.01e-02  
  539   -2148.7859512491      2.06e-02  
  540   -2150.1333082451      2.08e-02  
  541   -2150.5516784092      2.00e-02  
  542   -2150.3750886666      2.03e-02  
  543   -2115.5870912337      2.89e-02  
  544   -2150.7531642471      1.89e-02  
  545   -2150.7730999037      1.89e-02  
  546   -2147.4807197019      2.15e-02  
  547   -2085.5790137154      3.08e-02  
  548   -1865.3573907654      4.84e-02  
  549   -2076.8853069393      2.60e-02  
  550   -2153.1617073291      1.82e-02  
  551   -2153.2008420184      1.78e-02  
  552   -2155.0541496831      1.69e-02  
  553   -2156.7820377328      1.68e-02  
  554   -2156.3230111218      1.72e-02  
  555   -2157.9419423117      1.64e-02  
  556   -2156.3005705388      1.67e-02  
  557   -2156.4905381468      1.66e-02  
  558   -2156.0097430760      1.69e-02  
  559   -2155.9673538680      1.70e-02  
  560   -2155.2782871127      1.72e-02  
  561   -2154.8655655184      1.72e-02  
  562   -2154.3507999319      1.73e-02  
  563   -2131.8902032248      2.58e-02  
  564   -2151.9094069126      1.90e-02  
  565   -2039.0236410489      2.53e-02  
  566   -2147.7594991840      2.26e-02  
  567   -2138.8453543647      2.70e-02  
  568   -2137.8767019234      2.65e-02  
  569   -2143.7519075671      2.28e-02  
  570   -2140.4596482881      2.39e-02  
  571   -2142.6659824688      2.36e-02  
  572   -2141.4243481881      2.44e-02  
  573   -2134.7546287533      2.63e-02  
  574   -2131.1356691787      2.83e-02  
  575   -2148.1854602120      2.14e-02  
  576   -2146.9751420302      2.29e-02  
  577   -2146.0015111484      2.27e-02  
  578   -2080.1701651078      3.72e-02  
  579   -2139.9054968261      2.28e-02  
  580   -2110.2183699637      3.06e-02  
  581   -1905.8356708076      4.99e-02  
  582   -2140.3205634271      1.89e-02  
  583   -2153.1562055171      1.87e-02  
  584   -2154.2083669658      1.81e-02  
  585   -2155.9358654793      1.73e-02  
  586   -2155.9276633915      1.71e-02  
  587   -2154.4265757638      1.74e-02  
  588   -2154.4430078078      1.74e-02  
  589   -2154.4270124999      1.74e-02  
  590   -2153.9288843941      1.76e-02  
  591   -2154.3352816668      1.74e-02  
  592   -2153.9841110049      1.77e-02  
  593   -2152.7945673703      1.84e-02  
  594   -2155.4042829784      1.73e-02  
  595   -2155.9882578765      1.71e-02  
  596   -2152.1452987495      1.91e-02  
  597   -2155.1803267027      1.75e-02  
  598   -2075.6740024497      2.55e-02  
  599   -2153.6038321703      1.81e-02  
  600   -2154.3538089717      1.78e-02  
  601   -2154.3238822309      1.78e-02  
  602   -2154.1433892522      1.79e-02  
  603   -2153.3282303519      1.83e-02  
  604   -2153.0303955453      1.85e-02  
  605   -2153.1708596951      1.83e-02  
  606   -2153.5713650335      1.80e-02  
  607   -2148.7808463481      1.96e-02  
  608   -2150.7249422644      1.88e-02  
  609   -2151.6941288025      1.88e-02  
  610   -2148.9224085378      1.93e-02  
  611   -2145.5809523093      2.16e-02  
  612   -2148.7978992425      2.02e-02  
  613   -2152.0471764555      1.88e-02  
  614   -1981.8021818773      3.90e-02  
  615   -2144.7637584164      2.15e-02  
  616   -2149.0378573131      1.88e-02  
  617   -2157.8334818785      1.57e-02  
  618   -2155.1709971502      1.65e-02  
  619   -2160.4336852449      1.41e-02  
  620   -2157.7076395304      1.54e-02  
  621   -2159.3178056984      1.49e-02  
  622   -2158.7903710691      1.53e-02  
  623   -2158.5050981165      1.57e-02  
  624   -2158.9318321951      1.53e-02  
  625   -2157.7557084650      1.57e-02  
  626   -2157.0280881519      1.65e-02  
  627   -2156.9622640388      1.62e-02  
  628   -2157.2419205883      1.61e-02  
  629   -2152.4644261804      1.84e-02  
  630   -2097.6573499639      3.19e-02  
  631   -2133.6167246230      2.07e-02  
  632   -2154.8910708303      1.74e-02  
  633   -2156.6326966987      1.68e-02  
  634   -2155.5783330801      1.70e-02  
  635   -2154.5752841309      1.79e-02  
  636   -2154.8806515532      1.76e-02  
  637   -2156.3389645516      1.72e-02  
  638   -2155.5950698840      1.75e-02  
  639   -2155.6109963197      1.75e-02  
  640   -2155.2816361937      1.74e-02  
  641   -2155.3893582239      1.73e-02  
  642   -2155.2728846388      1.73e-02  
  643   -2155.2279147126      1.74e-02  
  644   -2153.2341026989      1.84e-02  
  645   -2153.8324809848      1.80e-02  
  646   -2094.9248635504      3.17e-02  
  647   -1977.4205271325      3.86e-02  
  648   -2147.9031638470      1.21e-02  
  649   -2102.4675340104      2.52e-02  
  650   -2143.3803866005      2.11e-02  
  651   -2154.3800099748      1.72e-02  
  652   -2152.3909317159      1.83e-02  
  653   -2152.3246854133      1.84e-02  
  654   -2152.1925119204      1.85e-02  
  655   -2151.8796047593      1.86e-02  
  656   -2153.7628603794      1.78e-02  
  657   -2153.2079973074      1.81e-02  
  658   -2154.5235492477      1.75e-02  
  659   -2152.1274048939      1.83e-02  
  660   -2152.6795068724      1.82e-02  
  661   -2152.3724909907      1.85e-02  
  662   -2152.4765195049      1.84e-02  
  663   -2150.1224535808      1.87e-02  
  664   -2016.7407874179      3.33e-02  
  665   -2123.4372549167      2.60e-02  
  666   -2156.7209845279      1.63e-02  
  667   -2146.6850974890      2.03e-02  
  668   -2152.4291083238      1.84e-02  
  669   -2147.6396190003      1.99e-02  
  670   -2148.7727596214      1.99e-02  
  671   -2150.1364196343      1.94e-02  
  672   -2150.1977595465      1.94e-02  
  673   -2150.1787262258      1.94e-02  
  674   -2150.0790711454      1.95e-02  
  675   -2151.1581140387      1.88e-02  
  676   -2150.1981942780      1.94e-02  
  677   -2146.2925443633      2.09e-02  
  678   -2149.6347496748      1.93e-02  
  679   -2149.3975971253      1.94e-02  
  680   -2003.9772587457      3.76e-02  
  681   -2132.7673740142      2.16e-02  
  682   -2122.3484761030      2.36e-02  
  683   -2113.9466421754      2.67e-02  
  684   -2154.2455556084      1.72e-02  
  685   -2156.5235850075      1.25e-02  
  686   -2144.6215763429      1.16e-02  
  687   -2155.3058859338      1.78e-02  
  688   -2156.2804824721      1.71e-02  
  689   -2155.7636281434      1.72e-02  
  690   -2156.2908165472      1.69e-02  
  691   -2155.0731185884      1.73e-02  
  692   -2157.0739869528      1.64e-02  
  693   -2154.8429306961      1.75e-02  
  694   -2154.8228334561      1.76e-02  
  695   -2152.9075827571      1.88e-02  
  696   -2151.6976435730      1.93e-02  
  697   -2152.1577262892      1.92e-02  
  698   -2142.6360215416      2.37e-02  
  699   -2143.9249847226      2.34e-02  
  700   -2138.3715465955      2.27e-02  
  701   -2080.4801834220      2.93e-02  
  702   -2004.8879763166      3.49e-02  
  703   -2146.2819465310      1.08e-02  
  704   -2150.8182498416      1.95e-02  
  705   -2151.4075877606      1.91e-02  
  706   -2151.4716006455      1.92e-02  
  707   -2151.2147458955      1.92e-02  
  708   -2151.0989842048      1.93e-02  
  709   -2151.0401433279      1.95e-02  
  710   -2150.8905732541      1.95e-02  
  711   -2150.9495634028      1.94e-02  
  712   -2150.7207501699      1.96e-02  
  713   -2148.3596625374      2.04e-02  
  714   -2149.9379173159      2.04e-02  
  715   -2148.9224612066      2.05e-02  
  716   -2150.4975676106      1.96e-02  
  717   -2086.5065846088      2.84e-02  
  718   -2151.7672563300      1.87e-02  
  719   -1968.6888665337      3.97e-02  
  720   -2140.0910345152      1.64e-02  
  721   -2137.0625833166      2.36e-02  
  722   -2154.4292787029      1.84e-02  
  723   -2153.5753460703      1.81e-02  
  724   -2153.4774566792      1.83e-02  
  725   -2154.9647837060      1.80e-02  
  726   -2154.3980822568      1.80e-02  
  727   -2154.2250112727      1.82e-02  
  728   -2153.5360465001      1.82e-02  
  729   -2154.0651801887      1.80e-02  
  730   -2154.0985607641      1.80e-02  
  731   -2153.9928814450      1.81e-02  
  732   -2153.9964187974      1.81e-02  
  733   -2093.8335446560      3.46e-02  
  734   -2153.2917145237      1.89e-02  
  735   -2152.6740615776      1.87e-02  
  736   -2024.9983492745      3.23e-02  
  737   -2153.1206044844      1.78e-02  
  738   -2159.8215516141      1.50e-02  
  739   -2152.1604181974      1.32e-02  
  740   -2137.2565371552      2.27e-02  
  741   -2147.7179082831      1.98e-02  
  742   -2149.4777772855      1.91e-02  
  743   -2150.6202086166      1.87e-02  
  744   -2151.5188905117      1.83e-02  
  745   -2151.8958533349      1.83e-02  
  746   -2151.5661814629      1.84e-02  
  747   -2151.5836302238      1.86e-02  
  748   -2151.7647888965      1.86e-02  
  749   -2144.3642625150      2.29e-02  
  750   -2121.2668720693      3.34e-02  
  751   -2134.8521961560      2.52e-02  
  752   -2147.3880088997      2.01e-02  
  753   -2149.3155600248      1.90e-02  
  754   -2151.0789497505      1.90e-02  
  755   -1901.6598421086      4.70e-02  
  756   -2144.6996330414      1.46e-02  
  757   -2114.1524330309      3.55e-02  
  758   -2149.2011312531      2.20e-02  
  759   -2145.9495454450      2.40e-02  
  760   -2148.6799685529      2.32e-02  
  761   -2148.8487234444      2.31e-02  
  762   -2141.6377453147      2.51e-02  
  763   -2141.7837487024      2.53e-02  
  764   -2132.5704908660      3.07e-02  
  765   -2133.0690441891      3.05e-02  
  766   -2124.7160617245      3.21e-02  
  767   -2126.0349670028      3.17e-02  
  768   -2119.2238844041      3.23e-02  
  769   -2127.3010404701      3.14e-02  
  770   -2106.1009972036      2.90e-02  
  771   -2133.5926238677      2.61e-02  
  772   -1960.5186046639      4.04e-02  
  773   -2094.0520278827      3.11e-02  
  774   -2148.3113709402      1.95e-02  
  775   -2146.2131259914      1.24e-02  
  776   -2141.7672759582      2.23e-02  
  777   -2150.6539712436      1.99e-02  
  778   -2150.8463919602      1.96e-02  
  779   -2150.4046461006      2.07e-02  
  780   -2150.2789497918      2.05e-02  
  781   -2150.6366059454      2.03e-02  
  782   -2150.7407882041      2.03e-02  
  783   -2150.4328035357      2.06e-02  
  784   -2150.3569258914      2.06e-02  
  785   -2148.5416410573      2.30e-02  
  786   -2099.0042537130      2.74e-02  
  787   -2148.6364703552      1.96e-02  
  788   -2152.4567597329      1.85e-02  
  789   -2152.8416658542      1.84e-02  
  790   -2152.6032016223      1.84e-02  
  791   -1927.5018284081      5.02e-02  
  792   -2080.4238332100      2.36e-02  
  793   -2155.9281632127      1.68e-02  
  794   -2155.1240674163      1.74e-02  
  795   -2154.9742572472      1.74e-02  
  796   -2156.4614343943      1.67e-02  
  797   -2154.9426197230      1.72e-02  
  798   -2156.4844214903      1.67e-02  
  799   -2156.7874877623      1.66e-02  
  800   -2157.7312796424      1.66e-02  
  801   -2155.1753647302      1.71e-02  
  802   -2138.3470753017      2.64e-02  
  803   -2146.2415213051      2.16e-02  
  804   -2145.2965561691      2.25e-02  
  805   -2144.0334071717      2.33e-02  
  806   -2144.4921141842      2.42e-02  
  807   -2152.6964096942      1.95e-02  
  808   -2036.5575006390      2.62e-02  
  809   -2138.0875551864      2.37e-02  
  810   -2138.1746138747      2.57e-02  
  811   -2145.0180209466      2.17e-02  
  812   -2147.2559724718      2.11e-02  
  813   -2141.7044841001      2.54e-02  
  814   -2146.8797247459      2.35e-02  
  815   -2141.7865543050      2.55e-02  
  816   -2143.1013235658      2.47e-02  
  817   -2077.9124962616      3.13e-02  
  818   -2154.3575168652      1.73e-02  
  819   -2155.4748787731      1.73e-02  
  820   -2154.9269882412      1.77e-02  
  821   -2155.6545650603      1.71e-02  
  822   -2154.4242000163      1.76e-02  
  823   -2154.8345658026      1.77e-02  
  824   -1985.8104033399      4.06e-02  
  825   -2144.9914007891      1.25e-02  
  826   -2141.5942051486      2.28e-02  
  827   -2146.5347070676      2.05e-02  
  828   -2150.1888407584      1.98e-02  
  829   -2148.5624153586      2.03e-02  
  830   -2146.2081988536      2.06e-02  
  831   -2146.1151616708      2.07e-02  
  832   -2148.4171612887      2.04e-02  
  833   -2091.1863295496      2.87e-02  
  834   -2152.2611758170      1.85e-02  
  835   -2151.6784200125      1.86e-02  
  836   -2152.1303288811      1.86e-02  
  837   -2152.3488674254      1.85e-02  
  838   -2152.2823027122      1.85e-02  
  839   -2152.3037464569      1.85e-02  
  840   -2151.4195642311      1.87e-02  
  841   -1958.5985940560      4.37e-02  
  842   -2142.6729635202      1.55e-02  
  843   -2129.9232106116      2.36e-02  
  844   -2155.7159176926      1.74e-02  
  845   -2154.5752220183      1.79e-02  
  846   -2154.1902341342      1.77e-02  
  847   -2154.7910303059      1.79e-02  
  848   -2154.2519987538      1.82e-02  
  849   -2138.1642190529      2.86e-02  
  850   -2142.1680703934      2.68e-02  
  851   -2141.2237348578      2.75e-02  
  852   -2142.4505968683      2.65e-02  
  853   -2142.3815213560      2.66e-02  
  854   -2141.0043056042      2.69e-02  
  855   -2144.8083478660      2.61e-02  
  856   -2146.4060468253      2.36e-02  
  857   -2147.0131257497      2.05e-02  
  858   -2034.9043585838      2.82e-02  
  859   -2145.5218028798      2.13e-02  
  860   -2148.6699336895      2.04e-02  
  861   -2150.5395347929      1.97e-02  
  862   -2145.3403275542      2.12e-02  
  863   -2141.0583894846      2.23e-02  
  864   -2143.0288087664      2.28e-02  
  865   -2146.3000554385      2.07e-02  
  866   -2147.7037467914      2.09e-02  
  867   -2146.3689539878      2.07e-02  
  868   -2148.0749015442      2.06e-02  
  869   -2147.8675787966      2.08e-02  
  870   -2149.9276324917      2.02e-02  
  871   -2147.6836433533      2.08e-02  
  872   -2147.6373026744      2.08e-02  
  873   -2136.5102640488      2.75e-02  
  874   -1974.3905564893      3.86e-02  
  875   -2133.0560162873      2.21e-02  
  876   -2160.8669995512      1.42e-02  
  877   -2141.6925039879      1.36e-02  
  878   -2113.1338367318      2.94e-02  
  879   -2138.4934081949      2.27e-02  
  880   -2143.5798182338      2.22e-02  
  881   -2139.7960970358      2.33e-02  
  882   -2139.3253796731      2.37e-02  
  883   -2138.7878358924      2.37e-02  
  884   -2140.4183515918      2.25e-02  
  885   -2140.8632034909      2.25e-02  
  886   -2140.8152146258      2.23e-02  
  887   -2140.9530813020      2.23e-02  
  888   -2120.3566435051      2.99e-02  
  889   -2118.4626443089      2.96e-02  
  890   -2113.5110482480      3.04e-02  
  891   -2124.8778532145      2.59e-02  
  892   -2119.9868320044      3.37e-02  
  893   -1566.8452069041      5.70e-02  
  894   -2087.2160487631      3.44e-02  
  895   -2156.2299764399      1.46e-02  
  896   -2089.9584236385      3.19e-02  
  897   -2153.7631189203      1.25e-02  
  898   -2149.7865962070      1.92e-02  
  899   -2152.1923448712      1.83e-02  
  900   -2152.1642978739      1.83e-02  
  901   -2152.2637036466      1.83e-02  
  902   -2152.2848644960      1.83e-02  
  903   -2152.2971166572      1.82e-02  
  904   -2152.2641998828      1.83e-02  
  905   -2152.2804212055      1.83e-02  
  906   -2152.2906881239      1.83e-02  
  907   -2152.7655606449      1.82e-02  
  908   -2151.8815458521      1.85e-02  
  909   -2153.3044091052      1.79e-02  
  910   -2153.1628316376      1.79e-02  
  911   -2128.8877851074      2.49e-02  
  912   -2153.0521849420      1.83e-02  
  913   -2034.8665312731      2.66e-02  
  914   -2131.6356875573      2.96e-02  
  915   -2138.9667326850      2.58e-02  
  916   -2139.6990821195      2.64e-02  
  917   -2137.4532450764      2.73e-02  
  918   -2142.3513456447      2.54e-02  
  919   -2142.4937500360      2.53e-02  
  920   -2143.5101688766      2.39e-02  
  921   -2142.7300535409      2.44e-02  
  922   -2134.6857539141      2.73e-02  
  923   -2138.0580714196      2.54e-02  
  924   -2143.4479191502      2.46e-02  
  925   -2139.4640945186      2.76e-02  
  926   -2109.5640799025      3.56e-02  
  927   -2134.3769718542      2.35e-02  
  928   -2094.1929262295      2.62e-02  
  929   -1853.6221096284      4.98e-02  
  930   -2032.6643304628      3.74e-02  
  931   -2145.5824112376      1.12e-02  
  932   -2148.5367470361      2.05e-02  
  933   -2151.7612240669      1.89e-02  
  934   -2151.7844548315      1.89e-02  
  935   -2151.6471568067      1.90e-02  
  936   -2149.1835683894      1.95e-02  
  937   -2151.3438446775      1.91e-02  
  938   -2149.2473550754      1.95e-02  
  939   -2149.2607318805      1.95e-02  
  940   -2149.2114202911      1.95e-02  
  941   -2149.0857671059      1.96e-02  
  942   -2149.0940721866      1.96e-02  
  943   -2150.9144719124      1.96e-02  
  944   -2096.3414166165      2.76e-02  
  945   -2150.0252319681      1.92e-02  
  946   -2152.7385730881      1.85e-02  
  947   -1950.0342656212      4.24e-02  
  948   -2135.6374949878      1.90e-02  
  949   -2148.4764432447      2.01e-02  
  950   -2155.1307248658      1.76e-02  
  951   -2153.7417749159      1.81e-02  
  952   -2154.8920316554      1.74e-02  
  953   -2154.8066395344      1.75e-02  
  954   -2155.1989617887      1.73e-02  
  955   -2155.4325250550      1.71e-02  
  956   -2155.0338993126      1.74e-02  
  957   -2155.4602956350      1.74e-02  
  958   -2156.4461593024      1.67e-02  
  959   -2157.1313502498      1.66e-02  
  960   -2146.7412630875      2.30e-02  
  961   -2149.0477389750      2.11e-02  
  962   -2147.7598872870      2.13e-02  
  963   -2134.0439804892      2.36e-02  
  964   -2038.2649313138      2.68e-02  
  965   -2149.2381099740      2.03e-02  
  966   -2146.6975130241      2.08e-02  
  967   -2146.7370719178      2.08e-02  
  968   -2146.7429925302      2.08e-02  
  969   -2146.9363953659      2.06e-02  
  970   -2145.9030317753      2.14e-02  
  971   -2146.6561874666      2.08e-02  
  972   -2145.0867327442      2.17e-02  
  973   -2147.3056720119      2.06e-02  
  974   -2146.8599068360      2.13e-02  
  975   -2109.4479014158      3.62e-02  
  976   -2141.5100245832      2.33e-02  
  977   -2141.7300740289      2.34e-02  
  978   -2133.9369329634      2.69e-02  
  979   -2140.2857487784      2.64e-02  
  980   -1888.5365163693      4.22e-02  
  981   -2045.9470867993      4.00e-02  
  982   -2155.9896476534      1.59e-02  
  983   -2128.6693526009      2.13e-02  
  984   -2146.0074003301      2.03e-02  
  985   -2150.4309312712      1.95e-02  
  986   -2146.9900918409      2.08e-02  
  987   -2145.9635392963      2.03e-02  
  988   -2148.4077005508      1.98e-02  
  989   -2145.8153650169      2.04e-02  
  990   -2142.8092682340      2.22e-02  
  991   -2141.1256921518      2.19e-02  
  992   -2141.0312939372      2.20e-02  
  993   -2141.9955177265      2.31e-02  
  994   -2140.9334903296      2.21e-02  
  995   -2141.7256139844      2.22e-02  
  996   -2107.4084396955      3.16e-02  
  997   -2146.5992335783      1.90e-02  
  998   -2144.3746345978      2.24e-02  
  999   -1881.0999433152      5.20e-02  
 1000   -2142.6577828062      1.42e-02  
 1001   -2149.9290456095      2.04e-02  
 1002   -2152.1664949003      1.91e-02  
 1003   -2152.7121135169      1.88e-02  
 1004   -2152.5768973768      1.89e-02  
 1005   -2152.6344322196      1.88e-02  
 1006   -2152.3612213844      1.89e-02  
 1007   -2152.6679194791      1.88e-02  
 1008   -2152.5578845837      1.90e-02  
 1009   -2152.5406264080      1.90e-02  
 1010   -2151.7612746649      1.91e-02  
 1011   -2150.8352960380      2.08e-02  
 1012   -2151.3841974623      2.03e-02  
 1013   -2095.9869742379      3.32e-02  
 1014   -2151.7545590107      1.93e-02  
 1015   -2150.3221775347      2.00e-02  
 1016   -1978.5910297750      4.47e-02  
 1017   -2146.3844853228      1.25e-02  
 1018   -2115.0411983996      3.44e-02  
 1019   -2139.8052295035      2.80e-02  
 1020   -2139.3030719859      2.83e-02  
 1021   -2139.6590356430      2.81e-02  
 1022   -2140.1906388325      2.78e-02  
 1023   -2137.5036088683      3.00e-02  
 1024   -2136.4092008014      3.08e-02  
 1025   -2131.5825191309      3.16e-02  
 1026   -2112.7505928839      3.65e-02  
 1027   -2130.7105450590      3.32e-02  
 1028   -2125.2641275082      3.40e-02  
 1029   -2127.7605482542      3.41e-02  
 1030   -2114.0479251264      3.19e-02  
 1031   -2101.6461772340      2.63e-02  
 1032   -2146.1889253085      2.10e-02  
 1033   -1960.1847793880      4.45e-02  
 1034   -2126.1506209954      2.36e-02  
 1035   -2140.2672627810      2.08e-02  
 1036   -2144.7035815553      1.22e-02  
 1037   -2151.5959735919      1.90e-02  
 1038   -2150.6794806321      1.88e-02  
 1039   -2152.5666874020      1.84e-02  
 1040   -2152.3668621867      1.85e-02  
 1041   -2152.2085588038      1.86e-02  
 1042   -2152.1550012177      1.86e-02  
 1043   -2152.1058373761      1.86e-02  
 1044   -2152.1012939129      1.86e-02  
 1045   -2152.1035314598      1.86e-02  
 1046   -2152.1221280648      1.86e-02  
 1047   -2095.5323061561      2.96e-02  
 1048   -2151.2315500466      1.89e-02  
 1049   -2151.4848684881      1.87e-02  
 1050   -2152.0490873682      1.86e-02  
 1051   -2140.8940168231      2.10e-02  
 1052   -1961.5380608044      4.11e-02  
 1053   -2124.7187403347      2.33e-02  
 1054   -2134.7550501103      2.23e-02  
 1055   -2160.8860218517      1.25e-02  
 1056   -2152.9418704844      1.69e-02  
 1057   -2152.6687823702      1.40e-02  
 1058   -2155.8692134664      1.67e-02  
 1059   -2157.0014585321      1.62e-02  
 1060   -2155.4699314722      1.68e-02  
 1061   -2155.4880128419      1.68e-02  
 1062   -2155.1391890562      1.73e-02  
 1063   -2152.4694434783      1.88e-02  
 1064   -2152.3925783815      1.88e-02  
 1065   -2150.8860909682      1.97e-02  
 1066   -2152.0641630997      1.90e-02  
 1067   -2149.1360864028      1.91e-02  
 1068   -2147.9081858903      1.91e-02  
 1069   -2154.7421469516      1.69e-02  
 1070   -2150.9658874340      1.82e-02  
 1071   -2147.9105608107      2.02e-02  
 1072   -2154.0543383182      1.78e-02  
 1073   -2065.8819121906      3.03e-02  
 1074   -2150.2946844222      1.86e-02  
 1075   -2159.7982735682      1.53e-02  
 1076   -2156.0668112180      1.67e-02  
 1077   -2155.6378977658      1.67e-02  
 1078   -2156.5427923373      1.66e-02  
 1079   -2156.5260636859      1.66e-02  
 1080   -2156.0979226797      1.69e-02  
 1081   -2155.3974101561      1.70e-02  
 1082   -2156.0770045964      1.68e-02  
 1083   -2156.0229054512      1.69e-02  
 1084   -2155.6186420174      1.66e-02  
 1085   -2155.2003891926      1.75e-02  
 1086   -2154.7533634570      1.75e-02  
 1087   -2156.1126228323      1.70e-02  
 1088   -2155.6643574742      1.59e-02  
 1089   -2059.0554408382      3.17e-02  
 1090   -2152.2597529561      1.71e-02  
 1091   -2160.2796973809      1.52e-02  
 1092   -2157.9830588043      1.48e-02  
 1093   -2155.5017892586      1.48e-02  
 1094   -2161.5445472023      1.26e-02  
 1095   -2156.9033163025      1.56e-02  
 1096   -2157.6906784380      1.57e-02  
 1097   -2158.9217189474      1.48e-02  
 1098   -2158.6673895899      1.51e-02  
 1099   -2157.4199140512      1.57e-02  
 1100   -2157.7881348216      1.54e-02  
 1101   -2160.1864513643      1.38e-02  
 1102   -2159.3048148273      1.47e-02  
 1103   -2163.8575589408      8.89e-03  
 1104   -2156.1035245515      1.67e-02  
 1105   -2154.3050080879      1.44e-02  
 1106   -2159.9531311433      1.47e-02  
 1107   -2158.7754381583      1.50e-02  
 1108   -2157.1519355976      1.54e-02  
 1109   -2158.0517367706      1.53e-02  
 1110   -2159.6160458055      1.45e-02  
 1111   -2159.0552419914      1.46e-02  
 1112   -2159.4404714568      1.48e-02  
 1113   -2159.5192938512      1.47e-02  
 1114   -2159.6628675797      1.46e-02  
 1115   -2159.7693009101      1.44e-02  
 1116   -2160.4169204865      1.41e-02  
 1117   -2159.2941152833      1.47e-02  
 1118   -2153.4396361415      1.72e-02  
 1119   -2151.7743115215      1.94e-02  
 1120   -2155.7259933771      1.64e-02  
 1121   -2073.7690845514      2.81e-02  
 1122   -2154.4474114504      1.71e-02  
 1123   -2150.6778158044      1.80e-02  
 1124   -2142.8744010336      2.01e-02  
 1125   -2151.4165826819      1.86e-02  
 1126   -2152.3667757414      1.82e-02  
 1127   -2154.2908267213      1.75e-02  
 1128   -2154.2112102309      1.81e-02  
 1129   -2153.3412552358      1.79e-02  
 1130   -2155.7961537922      1.69e-02  
 1131   -2153.0721185275      1.77e-02  
 1132   -2156.5934537510      1.66e-02  
 1133   -2156.3165449912      1.69e-02  
 1134   -2155.7094620043      1.69e-02  
 1135   -2156.9202834601      1.65e-02  
 1136   -2155.7379916238      1.66e-02  
 1137   -2027.9150073077      3.03e-02  
 1138   -2151.5811763651      1.91e-02  
 1139   -2151.3490537056      1.91e-02  
 1140   -2151.1189013476      1.92e-02  
 1141   -2151.1829255464      1.91e-02  
 1142   -2150.5118980843      1.99e-02  
 1143   -2148.9664662343      2.02e-02  
 1144   -2150.5043440664      1.99e-02  
 1145   -2150.6206036267      1.99e-02  
 1146   -2151.5649377275      1.95e-02  
 1147   -2147.6440768940      2.01e-02  
 1148   -2147.1663740467      2.03e-02  
 1149   -2147.5010277226      2.01e-02  
 1150   -2147.6689582244      2.01e-02  
 1151   -2147.6531449450      2.01e-02  
 1152   -2128.1038804007      2.47e-02  
 1153   -1951.7558861905      4.70e-02  
 1154   -2144.9128216382      1.36e-02  
 1155   -2088.2329938385      2.91e-02  
 1156   -2151.4503698483      1.86e-02  
 1157   -2151.3157961563      1.87e-02  
 1158   -2151.4214611879      1.88e-02  
 1159   -2152.6475210689      1.84e-02  
 1160   -2151.2110229600      1.89e-02  
 1161   -2151.0987297846      1.89e-02  
 1162   -2146.3400845813      2.06e-02  
 1163   -2151.3774192931      1.89e-02  
 1164   -2152.4587183005      1.87e-02  
 1165   -2151.9776266496      1.90e-02  
 1166   -2151.6305101350      1.88e-02  
 1167   -2151.6570708522      1.87e-02  
 1168   -2153.2338801712      1.82e-02  
 1169   -2154.8895330188      1.75e-02  
 1170   -1949.1947742314      3.86e-02  
 1171   -2084.7146864435      3.14e-02  
 1172   -2152.5302506974      1.78e-02  
 1173   -2155.5693412982      1.68e-02  
 1174   -2154.4461088624      1.79e-02  
 1175   -2155.2195426513      1.71e-02  
 1176   -2155.6301123915      1.73e-02  
 1177   -2156.3207624401      1.71e-02  
 1178   -2154.7346902272      1.73e-02  
 1179   -2155.1748709702      1.73e-02  
 1180   -2155.6260488600      1.73e-02  
 1181   -2155.7009431788      1.73e-02  
 1182   -2155.1020874541      1.74e-02  
 1183   -2155.2608495960      1.69e-02  
 1184   -2157.0653348665      1.68e-02  
 1185   -2156.3830068497      1.66e-02  
 1186   -2001.6370675805      4.09e-02  
 1187   -1960.8563216830      4.52e-02  
 1188   -2147.5020090547      1.07e-02  
 1189   -2098.8429685690      2.86e-02  
 1190   -2152.5047772172      1.83e-02  
 1191   -2152.6503712489      1.83e-02  
 1192   -2152.6171183149      1.83e-02  
 1193   -2151.4197389059      1.86e-02  
 1194   -2152.2753610416      1.85e-02  
 1195   -2153.5329222873      1.81e-02  
 1196   -2153.5119081733      1.81e-02  
 1197   -2153.5090605977      1.81e-02  
 1198   -2153.5200911040      1.81e-02  
 1199   -2152.8351347869      1.83e-02  
 1200   -2153.5181849004      1.82e-02  
 1201   -2152.5617246007      1.86e-02  
 1202   -2151.8765450541      1.88e-02  
 1203   -2152.6895293697      1.85e-02  
 1204   -2010.8167791627      3.37e-02  
 1205   -2126.2228165550      2.42e-02  
 1206   -2156.3461024558      1.62e-02  
 1207   -2134.5269337109      2.18e-02  
 1208   -2138.2846439441      2.12e-02  
 1209   -2136.2721043692      2.13e-02  
 1210   -2140.2317970636      2.19e-02  
 1211   -2139.3659512090      2.09e-02  
 1212   -2148.2490888413      1.93e-02  
 1213   -2142.5168563346      2.05e-02  
 1214   -2144.3285451705      2.04e-02  
 1215   -2144.8383020563      2.05e-02  
 1216   -2144.6240974307      2.02e-02  
 1217   -2145.0624034616      2.03e-02  
 1218   -2148.8719179843      1.91e-02  
 1219   -2145.0078876638      1.97e-02  
 1220   -1985.2163484583      3.94e-02  
 1221   -2122.5524003833      2.51e-02  
 1222   -1993.8676009024      5.28e-02  
 1223   -2101.3916926216      3.27e-02  
 1224   -2138.4369344529      2.39e-02  
 1225   -2147.3630588320      2.05e-02  
 1226   -2151.0691191014      1.94e-02  
 1227   -2152.2822182771      1.90e-02  
 1228   -2141.6750494153      2.13e-02  
 1229   -2150.3011016947      1.91e-02  
 1230   -2150.2216907956      1.94e-02  
 1231   -2150.1838470751      1.92e-02  
 1232   -2150.1727101031      1.92e-02  
 1233   -2149.0063213877      1.95e-02  
 1234   -2148.9942580231      1.97e-02  
 1235   -2150.5291438245      1.94e-02  
 1236   -2069.8359942536      3.54e-02  
 1237   -2002.1869536603      4.55e-02  
 1238   -2148.6651237714      1.10e-02  
 1239   -2098.7171803079      2.65e-02  
 1240   -2152.4124261569      1.84e-02  
 1241   -2152.9740027766      1.82e-02  
 1242   -2153.1322870572      1.81e-02  
 1243   -2152.5806018553      1.84e-02  
 1244   -2153.9431621455      1.77e-02  
 1245   -2154.0322898814      1.77e-02  
 1246   -2154.4380621208      1.77e-02  
 1247   -2153.6090537561      1.77e-02  
 1248   -2153.5707795941      1.77e-02  
 1249   -2153.5697603804      1.77e-02  
 1250   -2153.9619481717      1.76e-02  
 1251   -2153.2506805007      1.79e-02  
 1252   -2154.3827540970      1.77e-02  
 1253   -2153.0795893911      1.79e-02  
 1254   -2016.0978404110      3.34e-02  
 1255   -2152.4803216200      1.89e-02  
 1256   -2150.4092343185      1.92e-02  
 1257   -2153.5539768493      1.82e-02  
 1258   -2153.7659247744      1.80e-02  
 1259   -2150.2931694119      1.89e-02  
 1260   -2148.5770325022      1.93e-02  
 1261   -2150.0418927083      1.89e-02  
 1262   -2148.7981379954      1.91e-02  
 1263   -2148.9602135095      1.90e-02  
 1264   -2149.1557082131      1.89e-02  
 1265   -2151.6216690851      1.83e-02  
 1266   -2150.5817356992      1.89e-02  
 1267   -2154.1515915756      1.79e-02  
 1268   -2153.0296484953      1.81e-02  
 1269   -2152.8448527543      1.82e-02  
 1270   -1935.3338569567      4.28e-02  
 1271   -2122.8496135437      2.59e-02  
 1272   -2146.0202719676      2.13e-02  
 1273   -2153.4297236781      1.82e-02  
 1274   -2154.6656047023      1.81e-02  
 1275   -2153.6300388432      1.82e-02  
 1276   -2153.7086601794      1.81e-02  
 1277   -2153.6016313436      1.83e-02  
 1278   -2153.7399074850      1.82e-02  
 1279   -2153.6431380599      1.86e-02  
 1280   -2152.0316856358      1.91e-02  
 1281   -2150.9327200885      1.91e-02  
 1282   -2151.2193924585      1.90e-02  
 1283   -2153.2318282359      1.84e-02  
 1284   -2152.9240687819      1.88e-02  
 1285   -2153.6173571039      1.83e-02  
 1286   -2051.6677732147      3.84e-02  
 1287   -2062.9789199889      3.67e-02  
 1288   -2147.4307801002      1.18e-02  
 1289   -2099.0261705405      2.82e-02  
 1290   -2147.8116410355      2.02e-02  
 1291   -2153.2479409854      1.79e-02  
 1292   -2154.5955899774      1.74e-02  
 1293   -2153.7812873851      1.79e-02  
 1294   -2154.3592485823      1.76e-02  
 1295   -2154.3059842994      1.77e-02  
 1296   -2154.3318739426      1.76e-02  
 1297   -2154.3321767030      1.76e-02  
 1298   -2154.5404090881      1.75e-02  
 1299   -2154.2815826393      1.76e-02  
 1300   -2154.4501398036      1.76e-02  
 1301   -2154.0127459864      1.76e-02  
 1302   -2155.1452748281      1.75e-02  
 1303   -2154.1142840820      1.76e-02  
 1304   -2014.5116793398      3.30e-02  
 1305   -2135.6491206349      2.28e-02  
 1306   -2157.0656494540      1.61e-02  
 1307   -2142.1682625033      2.15e-02  
 1308   -2147.7608035432      2.02e-02  
 1309   -2147.7809180112      2.01e-02  
 1310   -2143.9403108378      2.17e-02  
 1311   -2146.0764074689      2.07e-02  
 1312   -2146.6436294485      2.10e-02  
 1313   -2146.2808447884      2.06e-02  
 1314   -2147.6914589709      2.13e-02  
 1315   -2149.6571900937      1.99e-02  
 1316   -2147.4489291241      2.03e-02  
 1317   -2149.3005580002      1.99e-02  
 1318   -2146.1744042211      2.06e-02  
 1319   -2143.2274172925      2.07e-02  
 1320   -2004.5895106422      3.60e-02  
 1321   -2125.3034743964      2.30e-02  
 1322   -2030.3719143861      4.29e-02  
 1323   -2130.7748789148      2.42e-02  
 1324   -2148.3372551509      1.06e-02  
 1325   -2098.1887136864      2.70e-02  
 1326   -2153.1840148738      1.80e-02  
 1327   -2153.3011456125      1.78e-02  
 1328   -2152.9226141514      1.83e-02  
 1329   -2153.1006520876      1.81e-02  
 1330   -2153.1204709605      1.81e-02  
 1331   -2153.2276921239      1.81e-02  
 1332   -2153.3613670126      1.80e-02  
 1333   -2152.9875192198      1.80e-02  
 1334   -2152.8646650084      1.81e-02  
 1335   -2152.8407299133      1.81e-02  
 1336   -2154.2157581172      1.78e-02  
 1337   -2152.0939344893      1.82e-02  
 1338   -2152.2629101856      1.82e-02  
 1339   -2152.1365852163      1.81e-02  
 1340   -2002.8700180676      3.22e-02  
 1341   -2095.2176282638      2.88e-02  
 1342   -2152.7604573114      1.77e-02  
 1343   -2151.7508482743      1.86e-02  
 1344   -2155.2794836245      1.76e-02  
 1345   -2153.2008567594      1.82e-02  
 1346   -2153.1872954563      1.82e-02  
 1347   -2153.4744477774      1.80e-02  
 1348   -2154.4413968469      1.78e-02  
 1349   -2154.5697851810      1.77e-02  
 1350   -2155.2033269628      1.75e-02  
 1351   -2155.1377595730      1.76e-02  
 1352   -2155.2999566179      1.77e-02  
 1353   -2155.4354701191      1.76e-02  
 1354   -2155.4219135322      1.76e-02  
 1355   -2154.3890267441      1.81e-02  
 1356   -1976.1450475451      3.65e-02  
 1357   -2137.3638047733      2.13e-02  
 1358   -2135.1464439223      2.18e-02  
 1359   -2154.0462584624      1.22e-02  
 1360   -2152.1196765908      1.86e-02  
 1361   -2152.1662526700      1.83e-02  
 1362   -2153.6317113118      1.78e-02  
 1363   -2153.7162410550      1.78e-02  
 1364   -2153.7333365571      1.77e-02  
 1365   -2153.5294030559      1.78e-02  
 1366   -2153.6784596611      1.78e-02  
 1367   -2153.6821569349      1.78e-02  
 1368   -2153.6713680607      1.78e-02  
 1369   -2153.6975088814      1.77e-02  
 1370   -2153.6864158829      1.78e-02  
 1371   -2153.8602898545      1.77e-02  
 1372   -2151.8114000805      1.85e-02  
 1373   -2153.9512218107      1.78e-02  
 1374   -2150.9206337625      1.85e-02  
 1375   -2042.8866554953      2.33e-02  
 1376   -2086.9155493555      3.06e-02  
 1377   -2153.5246695379      1.74e-02  
 1378   -2153.0695984546      1.79e-02  
 1379   -2153.1654760042      1.77e-02  
 1380   -2151.5695889576      1.80e-02  
 1381   -2153.1980170299      1.76e-02  
 1382   -2153.0159421635      1.79e-02  
 1383   -2153.1124263475      1.78e-02  
 1384   -2153.2132729777      1.78e-02  
 1385   -2153.1068291166      1.78e-02  
 1386   -2153.2050944100      1.78e-02  
 1387   -2153.7839188092      1.75e-02  
 1388   -2152.6924828259      1.79e-02  
 1389   -2153.2379489679      1.78e-02  
 1390   -2152.5301393634      1.81e-02  
 1391   -1975.4465104523      4.19e-02  
 1392   -2131.2519389706      2.05e-02  
 1393   -2148.7148280810      2.11e-02  
 1394   -2150.2134997313      2.01e-02  
 1395   -2150.5706252545      2.01e-02  
 1396   -2150.3641498702      2.01e-02  
 1397   -2151.5439022739      2.00e-02  
 1398   -2149.7299620196      2.03e-02  
 1399   -2149.2751499223      2.05e-02  
 1400   -2147.9270942835      2.07e-02  
 1401   -2148.0265993900      2.06e-02  
 1402   -2148.0481116442      2.06e-02  
 1403   -2148.6647937345      2.05e-02  
 1404   -2148.2334861774      2.06e-02  
 1405   -2149.8869127393      2.01e-02  
 1406   -2147.6292000829      2.07e-02  
 1407   -2113.8262645417      3.23e-02  
 1408   -1956.1773518429      4.56e-02  
 1409   -2145.3540837266      1.48e-02  
 1410   -2079.6469958216      2.94e-02  
 1411   -2153.1426053947      1.81e-02  
 1412   -2154.8324048722      1.77e-02  
 1413   -2154.7035432579      1.76e-02  
 1414   -2155.4083581764      1.78e-02  
 1415   -2155.4795114951      1.77e-02  
 1416   -2155.4470643257      1.77e-02  
 1417   -2155.4549899501      1.77e-02  
 1418   -2155.4465074279      1.77e-02  
 1419   -2155.0886661374      1.78e-02  
 1420   -2154.1808280944      1.82e-02  
 1421   -2153.1052430190      1.85e-02  
 1422   -2153.6497287081      1.85e-02  
 1423   -2154.7303296074      1.80e-02  
 1424   -2155.7994097192      1.71e-02  
 1425   -1936.5406776329      4.64e-02  
 1426   -2141.2155841397      1.52e-02  
 1427   -2098.4455486907      3.41e-02  
 1428   -2149.5019668568      1.99e-02  
 1429   -2149.8406866617      1.96e-02  
 1430   -2152.0914509467      1.89e-02  
 1431   -2152.2053746255      1.90e-02  
 1432   -2152.0062685060      1.90e-02  
 1433   -2152.0397026658      1.90e-02  
 1434   -2150.3755130133      1.94e-02  
 1435   -2150.2469746819      1.96e-02  
 1436   -2149.1274724426      2.04e-02  
 1437   -2148.0851263434      2.00e-02  
 1438   -2145.5873175920      2.07e-02  
 1439   -2152.1435630830      1.88e-02  
 1440   -2148.0545449403      2.13e-02  
 1441   -2143.6234977205      2.17e-02  
 1442   -1889.0272679266      4.45e-02  
 1443   -2064.1633848547      3.73e-02  
 1444   -2157.8186391122      1.50e-02  
 1445   -2140.2058790083      2.20e-02  
 1446   -2154.0743864846      1.69e-02  
 1447   -2162.2031383602      8.78e-03  
 1448   -2155.4426868670      1.72e-02  
 1449   -2156.4224092268      1.66e-02  
 1450   -2156.2611174972      1.69e-02  
 1451   -2155.9979451783      1.71e-02  
 1452   -2156.0115076435      1.71e-02  
 1453   -2156.0438453393      1.71e-02  
 1454   -2156.0278960270      1.71e-02  
 1455   -2156.0588220686      1.71e-02  
 1456   -2156.1817923759      1.69e-02  
 1457   -2155.9837753575      1.72e-02  
 1458   -2155.6204493588      1.67e-02  
 1459   -2157.1201655767      1.65e-02  
 1460   -2153.8218882423      1.79e-02  
 1461   -2156.1696437792      1.65e-02  
 1462   -2156.3859416200      1.69e-02  
 1463   -2040.9611301133      2.42e-02  
 1464   -2108.4973954939      3.76e-02  
 1465   -2149.8984123217      1.99e-02  
 1466   -2150.3219227124      1.95e-02  
 1467   -2150.4335652096      1.98e-02  
 1468   -2150.4552742049      1.98e-02  
 1469   -2150.4510565263      1.98e-02  
 1470   -2150.4172957343      1.99e-02  
 1471   -2148.6950447329      1.98e-02  
 1472   -2150.5091253936      1.95e-02  
 1473   -2150.2261252577      1.97e-02  
 1474   -2148.2755972253      2.05e-02  
 1475   -2149.8804556633      1.97e-02  
 1476   -2147.6891034447      2.12e-02  
 1477   -2140.4192662307      2.47e-02  
 1478   -2101.8888463579      3.03e-02  
 1479   -1925.2290117162      5.16e-02  
 1480   -2080.0861219126      2.40e-02  
 1481   -2148.6767047169      1.94e-02  
 1482   -2154.1334102743      1.76e-02  
 1483   -2155.0724998900      1.75e-02  
 1484   -2154.7261821608      1.72e-02  
 1485   -2156.4630476143      1.69e-02  
 1486   -2155.2985975802      1.72e-02  
 1487   -2154.3350072894      1.76e-02  
 1488   -2156.6349178239      1.66e-02  
 1489   -2156.0132974610      1.73e-02  
 1490   -2156.2584422958      1.69e-02  
 1491   -2155.1215869379      1.72e-02  
 1492   -2155.8241645060      1.69e-02  
 1493   -2155.1702694861      1.73e-02  
 1494   -2145.7923329952      2.30e-02  
 1495   -2152.5249686199      1.90e-02  
 1496   -2038.6517005228      2.53e-02  
 1497   -2106.7784498803      3.80e-02  
 1498   -2150.1004212056      1.98e-02  
 1499   -2149.9404377053      2.00e-02  
 1500   -2149.1429037295      2.09e-02  
 1501   -2149.6549421313      2.04e-02  
 1502   -2148.8957331326      2.10e-02  
 1503   -2146.5572377038      2.10e-02  
 1504   -2147.8095939727      2.12e-02  
 1505   -2147.5828710960      2.12e-02  
 1506   -2145.0052259812      2.26e-02  
 1507   -2147.6046890257      2.16e-02  
 1508   -2148.1092904398      2.15e-02  
 1509   -2111.7284393273      3.49e-02  
 1510   -2128.6075123161      2.81e-02  
 1511   -2105.5017343785      3.04e-02  
 1512   -1886.5435338171      5.12e-02  
 1513   -2125.1601772473      2.55e-02  
 1514   -2147.0625568706      1.95e-02  
 1515   -2152.4468223053      1.28e-02  
 1516   -2152.7224582813      1.82e-02  
 1517   -2154.7502326921      1.75e-02  
 1518   -2153.4853673532      1.80e-02  
 1519   -2153.3462042870      1.80e-02  
 1520   -2154.3466728078      1.79e-02  
 1521   -2153.4034683777      1.79e-02  
 1522   -2153.4921074202      1.79e-02  
 1523   -2153.4046605763      1.78e-02  
 1524   -2153.3073299345      1.78e-02  
 1525   -2153.2029487585      1.79e-02  
 1526   -2152.8509894237      1.80e-02  
 1527   -2151.1499696458      1.93e-02  
 1528   -2153.0827451451      1.84e-02  
 1529   -2152.7471174482      1.84e-02  
 1530   -2150.6726110820      1.94e-02  
 1531   -1995.6207128104      3.79e-02  
 1532   -2154.7043406719      1.41e-02  
 1533   -2157.0905242078      1.72e-02  
 1534   -2144.4058851532      1.10e-02  
 1535   -2087.5081668742      3.33e-02  
 1536   -2148.1294023596      1.91e-02  
 1537   -2151.5123436692      1.88e-02  
 1538   -2152.0451900588      1.83e-02  
 1539   -2151.6016072409      1.90e-02  
 1540   -2151.2967514963      1.90e-02  
 1541   -2151.4048708838      1.89e-02  
 1542   -2150.6913673346      1.95e-02  
 1543   -2151.3386284229      1.91e-02  
 1544   -2151.3707955995      1.94e-02  
 1545   -2149.6640587885      1.97e-02  
 1546   -2149.0995017387      1.98e-02  
 1547   -2150.6520426588      1.89e-02  
 1548   -2084.4461629495      3.01e-02  
 1549   -2149.1854680385      2.00e-02  
 1550   -1892.7309520406      4.92e-02  
 1551   -2079.1859935164      2.46e-02  
 1552   -2152.7547841896      1.85e-02  
 1553   -2154.7197236273      1.74e-02  
 1554   -2156.5275820804      1.67e-02  
 1555   -2157.0819711769      1.68e-02  
 1556   -2157.0726728540      1.68e-02  
 1557   -2156.4202423534      1.67e-02  
 1558   -2155.2343443613      1.71e-02  
 1559   -2156.5394106936      1.68e-02  
 1560   -2156.4993025617      1.69e-02  
 1561   -2156.5762215032      1.69e-02  
 1562   -2156.7008364400      1.71e-02  
 1563   -2156.5755459211      1.70e-02  
 1564   -2138.2527516509      2.38e-02  
 1565   -2146.8904077075      2.12e-02  
 1566   -2153.9572130939      1.84e-02  
 1567   -2042.4282374053      2.37e-02  
 1568   -2096.7653029543      3.04e-02  
 1569   -2151.2952387744      1.82e-02  
 1570   -2151.4957599898      1.87e-02  
 1571   -2153.4561022391      1.79e-02  
 1572   -2152.7796231716      1.81e-02  
 1573   -2150.7342853308      1.88e-02  
 1574   -2150.5790842828      1.87e-02  
 1575   -2150.5829158442      1.88e-02  
 1576   -2150.5432113940      1.87e-02  
 1577   -2150.5104291326      1.88e-02  
 1578   -2150.4699952281      1.87e-02  
 1579   -2150.9834994177      1.88e-02  
 1580   -2151.6898216527      1.85e-02  
 1581   -2151.9544510478      1.83e-02  
 1582   -2152.0561013040      1.84e-02  
 1583   -1909.6128636015      4.95e-02  
 1584   -2116.4979864658      2.70e-02  
 1585   -2136.4752231693      2.08e-02  
 1586   -2157.7886493682      1.48e-02  
 1587   -2158.5956783221      1.68e-02  
 1588   -2152.4747273273      1.76e-02  
 1589   -2159.9744296640      1.47e-02  
 1590   -2151.9241890231      1.76e-02  
 1591   -2155.8867820430      1.66e-02  
 1592   -2153.7246641838      1.74e-02  
 1593   -2155.0697260319      1.72e-02  
 1594   -2156.2050478779      1.66e-02  
 1595   -2155.8081831670      1.70e-02  
 1596   -2156.6603285023      1.66e-02  
 1597   -2156.4372908035      1.66e-02  
 1598   -2155.8781639613      1.49e-02  
 1599   -2134.7892266061      1.88e-02  
 1600   -2150.3341360681      2.01e-02  
 1601   -2148.4269304288      1.95e-02  
 1602   -2146.8546817903      2.05e-02  
 1603   -2151.2351691187      1.88e-02  
 1604   -2152.3101754934      1.83e-02  
 1605   -2154.6543992648      1.76e-02  
 1606   -2149.6388917696      1.96e-02  
 1607   -2151.6327153993      1.87e-02  
 1608   -2151.8697930642      1.84e-02  
 1609   -2149.4298551338      1.91e-02  
 1610   -2145.5902965741      2.03e-02  
[...]
 4519   -2166.3110512183      2.43e-03  
 4520   -2166.3047089167      2.46e-03  
 4521   -2166.2660273543      2.59e-03  
 4522   -2166.5410541837      6.97e-04  
 4523   -2165.2481765970      4.24e-03  
 4524   -2166.3424889602      2.06e-03  
 4525   -2166.2236410395      2.29e-03  
 4526   -2166.2134360377      2.32e-03  
 4527   -2166.2091026183      2.32e-03  
 4528   -2166.2129664200      2.31e-03  
 4529   -2166.2104454809      2.30e-03  
 4530   -2166.2108003524      2.30e-03  
 4531   -2166.5202148003      8.20e-04  
 4532   -2166.0817776782      2.97e-03  
 4533   -2166.3229910421      1.79e-03  
 4534   -2166.3819231537      1.47e-03  
 4535   -2166.5408087498      7.49e-04  
 4536   -2166.3902739857      1.39e-03  
 4537   -2166.4130862214      1.26e-03  
 4538   -2166.3926824363      1.31e-03  
 4539   -2166.3852333942      1.41e-03  
 4540   -2166.5420542218      6.33e-04  
 4541   -2166.4050927988      1.25e-03  
 4542   -2166.4024738843      1.28e-03  
 4543   -2166.4019688020      1.28e-03  
 4544   -2166.4031730590      1.27e-03  
 4545   -2166.4031776592      1.27e-03  
 4546   -2166.4046572712      1.26e-03  
 4547   -2166.4108355276      1.24e-03  
 4548   -2166.4131028311      1.24e-03  
 4549   -2166.4084486401      1.29e-03  
 4550   -2166.4076817285      1.27e-03  
 4551   -2166.4064072718      1.34e-03  
 4552   -2166.5111828705      1.04e-03  
 4553   -2166.4071848894      1.26e-03  
 4554   -2166.4090472138      1.25e-03  
 4555   -2166.5264771062      8.75e-04  
 4556   -2165.1894846191      4.30e-03  
 4557   -2166.2701836159      2.58e-03  
 4558   -2166.2007792781      2.38e-03  
 4559   -2166.2909733342      2.50e-03  
 4560   -2166.2892064324      2.51e-03  
 4561   -2166.2876506858      2.52e-03  
 4562   -2166.2935536413      2.50e-03  
 4563   -2166.3687866172      1.63e-03  
 4564   -2166.2068834973      2.36e-03  
 4565   -2166.1983055563      2.39e-03  
 4566   -2166.1961904333      2.40e-03  
 4567   -2166.1798681119      2.47e-03  
 4568   -2166.2647671183      2.24e-03  
 4569   -2166.1947443251      2.43e-03  
 4570   -2166.2064054134      2.34e-03  
 4571   -2163.6924987539      6.77e-03  
 4572   -2166.1787071078      2.73e-03  
 4573   -2166.4576773542      1.60e-03  
 4574   -2166.2584219954      2.33e-03  
 4575   -2166.5099899931      1.16e-03  
 4576   -2166.5445622901      6.82e-04  
 4577   -2166.4081860617      1.32e-03  
 4578   -2166.5402003487      7.84e-04  
 4579   -2166.3612439420      1.58e-03  
 4580   -2166.3743775190      1.45e-03  
 4581   -2166.3548937345      1.62e-03  
 4582   -2166.3479955576      1.65e-03  
 4583   -2166.3381677042      1.71e-03  
 4584   -2166.3693531978      1.50e-03  
 4585   -2166.3846096938      1.39e-03  
 4586   -2165.5667960322      4.36e-03  
 4587   -2165.9676539756      2.74e-03  
 4588   -2166.2989499767      1.73e-03  
 4589   -2166.2936654105      1.75e-03  
 4590   -2166.3317735426      1.72e-03  
 4591   -2166.3569003967      1.58e-03  
 4592   -2166.3469640538      1.62e-03  
 4593   -2166.2395758950      2.73e-03  
 4594   -2161.1688165449      9.15e-03  
 4595   -2163.8080606111      5.92e-03  
 4596   -2166.1731054825      2.37e-03  
 4597   -2166.2077713918      2.33e-03  
 4598   -2166.4797326524      1.16e-03  
 4599   -2166.2558235434      2.19e-03  
 4600   -2166.5040168343      1.20e-03  
 4601   -2166.4302900967      1.91e-03  
 4602   -2166.4275065553      1.64e-03  
 4603   -2166.5190570700      9.37e-04  
 4604   -2166.5232912981      9.87e-04  
 4605   -2166.5111158955      1.14e-03  
 4606   -2166.2316471229      2.21e-03  
 4607   -2166.5269242125      9.26e-04  
 4608   -2166.3265912143      2.09e-03  
 4609   -2166.4421694312      1.55e-03  
 4610   -2166.5556762413      4.75e-04  
 4611   -2166.4047358027      1.28e-03  
 4612   -2166.5442826114      6.14e-04  
 4613   -2166.5303287868      8.32e-04  
 4614   -2166.5350144266      7.76e-04  
 4615   -2166.1732332244      2.50e-03  
 4616   -2166.5293185149      8.44e-04  
 4617   -2166.5504036504      4.99e-04  
 4618   -2166.5441006046      6.00e-04  
 4619   -2166.4049730074      1.30e-03  
 4620   -2166.4117219159      1.23e-03  
 4621   -2166.4096893349      1.24e-03  
 4622   -2166.3026318574      2.48e-03  
 4623   -2166.2867248688      2.23e-03  
 4624   -2166.4209761710      1.36e-03  
 4625   -2166.4007387693      1.29e-03  
 4626   -2166.3997188499      1.29e-03  
 4627   -2166.4014397342      1.29e-03  
 4628   -2166.4011037240      1.30e-03  
 4629   -2166.4051167664      1.32e-03  
 4630   -2166.4038504186      1.30e-03  
 4631   -2166.4064794620      1.26e-03  
 4632   -2166.3925965725      1.35e-03  
 4633   -2166.3783882866      1.43e-03  
 4634   -2166.4014268492      1.83e-03  
 4635   -2166.2235852889      2.23e-03  
 4636   -2166.3261728386      2.01e-03  
 4637   -2166.2356313619      2.13e-03  
 4638   -2166.5139570899      1.13e-03  
 4639   -2166.5278441827      9.49e-04  
 4640   -2166.5293345893      8.62e-04  
 4641   -2166.5358066365      7.58e-04  
 4642   -2166.4139744170      1.24e-03  
 4643   -2166.4092565380      1.26e-03  
 4644   -2166.4956854219      1.14e-03  
 4645   -2166.5445072082      5.33e-04  
 4646   -2166.4405171350      1.49e-03  
 4647   -2166.5499824960      5.29e-04  
 4648   -2166.4127820477      1.25e-03  
 4649   -2166.4191624343      1.25e-03  
 4650   -2166.4142620779      1.28e-03  
 4651   -2166.5531518341      4.67e-04  
 4652   -2166.4053921713      1.32e-03  
 4653   -2166.4028759001      1.34e-03  
 4654   -2166.4095935814      1.31e-03  
 4655   -2166.4154742725      1.30e-03  
 4656   -2166.3451207427      2.28e-03  
 4657   -2166.5339209077      9.31e-04  
 4658   -2166.5526663668      4.55e-04  
 4659   -2166.5544550865      4.32e-04  
 4660   -2166.3987807444      1.33e-03  
 4661   -2166.3998415097      1.32e-03  
 4662   -2166.3902652817      1.39e-03  
 4663   -2166.4027657887      1.34e-03  
 4664   -2166.3942728401      1.36e-03  
 4665   -2166.3950017942      1.35e-03  
 4666   -2166.3952652258      1.34e-03  
 4667   -2166.3999107141      1.36e-03  
 4668   -2166.4031296610      1.36e-03  
 4669   -2166.3970146606      1.35e-03  
 4670   -2166.4155719147      1.30e-03  
 4671   -2166.3890081186      1.38e-03  
 4672   -2166.3101031572      2.43e-03  
 4673   -2166.4206801880      1.29e-03  
 4674   -2166.4069608814      1.25e-03  
 4675   -2162.3414652292      6.39e-03  
 4676   -2166.1832506960      3.08e-03  
 4677   -2166.0807428463      2.81e-03  
 4678   -2166.4154722381      1.65e-03  
 4679   -2166.5252074202      1.05e-03  
 4680   -2166.2221873338      2.22e-03  
 4681   -2166.2170973081      2.22e-03  
 4682   -2166.2236360141      2.18e-03  
 4683   -2166.2276462101      2.18e-03  
 4684   -2166.2251937184      2.19e-03  
 4685   -2166.2204044113      2.23e-03  
 4686   -2166.2225609894      2.21e-03  
 4687   -2166.2248527516      2.20e-03  
 4688   -2166.2211871421      2.22e-03  
 4689   -2166.2183665712      2.23e-03  
 4690   -2164.7945724169      5.93e-03  
 4691   -2165.8256662378      3.08e-03  
 4692   -2166.4705700243      1.37e-03  
 4693   -2166.1876978781      2.42e-03  
 4694   -2166.2125542916      2.79e-03  
 4695   -2165.9883384688      3.46e-03  
 4696   -2166.4877555642      1.40e-03  
 4697   -2166.3160374931      1.89e-03  
 4698   -2166.3877298627      1.37e-03  
 4699   -2166.3287124972      2.29e-03  
 4700   -2166.2115307652      2.29e-03  
 4701   -2166.3688682925      1.50e-03  
 4702   -2166.5402239687      8.23e-04  
 4703   -2166.3647147722      1.59e-03  
 4704   -2166.3185035499      2.37e-03  
 4705   -2166.3216724841      2.35e-03  
 4706   -2166.2373832765      2.24e-03  
 4707   -2166.2398959318      2.24e-03  
 4708   -2166.2456045876      2.27e-03  
 4709   -2165.5167425273      4.26e-03  
 4710   -2166.5388778148      6.41e-04  
 4711   -2166.3355171586      1.75e-03  
 4712   -2166.3728386688      1.48e-03  
 4713   -2166.3674500037      1.53e-03  
 4714   -2166.3743956247      1.48e-03  
 4715   -2166.3732531167      1.49e-03  
 4716   -2166.3636262475      1.57e-03  
 4717   -2166.3624494720      1.57e-03  
 4718   -2166.3974035759      1.49e-03  
 4719   -2166.5297517081      8.58e-04  
 4720   -2166.5502768229      4.90e-04  
 4721   -2166.4095466728      1.23e-03  
 4722   -2166.4118408430      1.25e-03  
 4723   -2166.4089620794      1.24e-03  
 4724   -2166.2126473935      2.34e-03  
 4725   -2166.4422612652      1.33e-03  
 4726   -2166.2179170269      2.31e-03  
 4727   -2166.5533281863      4.31e-04  
 4728   -2166.4069793217      1.26e-03  
 4729   -2166.5530392839      4.39e-04  
 4730   -2166.4044201409      1.27e-03  
 4731   -2166.4025488187      1.30e-03  
 4732   -2166.3965058966      1.34e-03  
 4733   -2166.4012269080      1.30e-03  
 4734   -2166.3887469422      1.40e-03  
 4735   -2166.3966432951      1.34e-03  
 4736   -2166.3850349643      1.40e-03  
 4737   -2166.3922099393      1.36e-03  
 4738   -2166.3932130669      1.35e-03  
 4739   -2166.3963003328      1.33e-03  
 4740   -2166.3992215142      1.35e-03  
 4741   -2166.3968092010      1.85e-03  
 4742   -2166.3122100580      2.41e-03  
 4743   -2166.2806494764      2.25e-03  
 4744   -2166.3885124847      1.37e-03  
 4745   -2166.4599440997      1.62e-03  
 4746   -2166.5004533281      1.16e-03  
 4747   -2166.3349949307      2.07e-03  
 4748   -2166.2228129365      2.26e-03  
 4749   -2166.2227954979      2.24e-03  
 4750   -2166.2376437722      2.22e-03  
 4751   -2166.2296904955      2.25e-03  
 4752   -2166.2255970094      2.26e-03  
 4753   -2166.2335321396      2.26e-03  
 4754   -2166.2285729917      2.28e-03  
 4755   -2166.4702908499      1.35e-03  
 4756   -2166.2597288210      2.25e-03  
 4757   -2166.2142269822      2.31e-03  
 4758   -2166.2176912011      2.30e-03  
 4759   -2166.2117213629      2.32e-03  
 4760   -2165.5951817526      3.63e-03  
 4761   -2164.7401476719      6.48e-03  
 4762   -2166.2247390377      2.27e-03  
 4763   -2166.1089646927      2.68e-03  
 4764   -2166.3333711535      1.84e-03  
 4765   -2166.4785562119      1.39e-03  
 4766   -2166.1871148045      2.51e-03  
 4767   -2166.2306548943      2.39e-03  
 4768   -2166.1926003559      2.49e-03  
 4769   -2166.2147249622      2.43e-03  
 4770   -2166.2263904079      2.41e-03  
 4771   -2166.1449491984      2.59e-03  
 4772   -2166.1804324678      2.47e-03  
 4773   -2166.1518093245      2.56e-03  
 4774   -2166.1856633640      2.47e-03  
 4775   -2164.9897628031      4.91e-03  
 4776   -2166.3180317102      1.72e-03  
 4777   -2166.5112683350      1.04e-03  
 4778   -2166.4836896202      1.29e-03  
 4779   -2165.2520643580      4.23e-03  
 4780   -2165.2315845313      4.16e-03  
 4781   -2166.4291777008      1.69e-03  
 4782   -2166.3982132828      1.89e-03  
 4783   -2166.2186214570      2.45e-03  
 4784   -2166.1965298440      2.40e-03  
 4785   -2166.2043952179      2.38e-03  
 4786   -2166.1924497460      2.39e-03  
 4787   -2166.5042809779      1.07e-03  
 4788   -2166.3907059337      1.48e-03  
 4789   -2166.4057966305      1.32e-03  
 4790   -2166.5436771062      6.16e-04  
 4791   -2166.4090666309      1.24e-03  
 4792   -2166.4803532685      1.25e-03  
 4793   -2166.5500835117      5.78e-04  
 4794   -2166.4007271501      1.30e-03  
 4795   -2166.4023174375      1.29e-03  
 4796   -2166.4039396093      1.29e-03  
 4797   -2166.3987548401      1.32e-03  
 4798   -2166.3995825447      1.32e-03  
 4799   -2166.5478502193      5.88e-04  
 4800   -2166.4532250318      1.73e-03  
 4801   -2166.2306900726      2.30e-03  
 4802   -2166.2409604929      2.29e-03  
 4803   -2166.5461826524      5.48e-04  
 4804   -2166.5597118419      3.73e-04  
 4805   -2166.5520312985      4.31e-04  
 4806   -2166.5494522633      4.98e-04  
 4807   -2166.5522295857      4.64e-04  
 4808   -2166.5423073126      5.54e-04  
 4809   -2166.5515219920      4.77e-04  
 4810   -2166.4062891345      1.27e-03  
 4811   -2166.4000049213      1.30e-03  
 4812   -2166.3965603763      1.34e-03  
 4813   -2166.4003446157      1.29e-03  
 4814   -2166.4014196225      1.29e-03  
 4815   -2166.3974552917      1.31e-03  
 4816   -2166.3735027070      1.49e-03  
 4817   -2166.3184482237      2.41e-03  
 4818   -2166.4092624296      1.88e-03  
 4819   -2166.3858745152      2.06e-03  
 4820   -2166.4425917548      1.58e-03  
 4821   -2166.2077675728      2.33e-03  
 4822   -2166.5512019479      5.59e-04  
 4823   -2166.5474825794      6.21e-04  
 4824   -2166.3860479745      1.45e-03  
 4825   -2166.3586242675      1.60e-03  
 4826   -2166.3764150681      1.48e-03  
 4827   -2166.3805310404      1.45e-03  
 4828   -2166.3733630680      1.49e-03  
 4829   -2166.3767523938      1.48e-03  
 4830   -2166.3776707692      1.48e-03  
 4831   -2166.3353002975      1.74e-03  
 4832   -2166.3726586483      1.50e-03  
 4833   -2166.3661634189      1.55e-03  
 4834   -2166.3513678480      1.66e-03  
 4835   -2166.3562317939      1.63e-03  
 4836   -2166.3339119179      1.77e-03  
 4837   -2166.2771166219      2.67e-03  
 4838   -2166.2512381942      2.63e-03  
 4839   -2157.8774499548      1.08e-02  
 4840   -2164.2132414652      4.70e-03  
 4841   -2166.2351802715      2.91e-03  
 4842   -2166.1312469243      2.56e-03  
 4843   -2166.4958985164      1.23e-03  
 4844   -2166.1997227506      2.38e-03  
 4845   -2166.2211091463      2.23e-03  
 4846   -2166.2069993366      2.30e-03  
 4847   -2166.4978711436      1.06e-03  
 4848   -2166.2196024616      2.23e-03  
 4849   -2166.2017654267      2.28e-03  
 4850   -2166.2177405271      2.28e-03  
 4851   -2166.3129576535      1.96e-03  
 4852   -2166.1838213390      2.46e-03  
 4853   -2166.2096996598      2.32e-03  
 4854   -2166.1604260810      2.90e-03  
 4855   -2166.1783075272      2.48e-03  
 4856   -2166.4635850999      1.53e-03  
 4857   -2166.2568857886      2.25e-03  
 4858   -2166.5149500193      9.93e-04  
 4859   -2166.4030083358      1.33e-03  
 4860   -2166.5155962945      1.03e-03  
 4861   -2166.5482925264      5.74e-04  
 4862   -2166.3960832121      1.34e-03  
 4863   -2166.3928978994      1.37e-03  
 4864   -2166.3909644439      1.38e-03  
 4865   -2166.3912486648      1.38e-03  
 4866   -2166.4105999281      1.24e-03  
 4867   -2166.4090457407      1.26e-03  
 4868   -2166.4119753312      1.23e-03  
 4869   -2166.4124446850      1.26e-03  
 4870   -2166.4107674050      1.26e-03  
 4871   -2166.4109630018      1.23e-03  
 4872   -2166.5441229882      5.75e-04  
 4873   -2166.2360003675      2.71e-03  
 4874   -2166.3060357892      2.43e-03  
 4875   -2166.3067165267      2.43e-03  
 4876   -2166.2840860822      2.50e-03  
 4877   -2166.2520513609      2.62e-03  
 4878   -2166.2754109423      2.54e-03  
 4879   -2166.2776138958      2.53e-03  
 4880   -2166.2774936737      2.53e-03  
 4881   -2166.2121649144      2.33e-03  
 4882   -2166.4044399068      1.50e-03  
 4883   -2166.3912798899      1.37e-03  
 4884   -2166.4020915043      1.30e-03  
 4885   -2166.4099602752      1.27e-03  
 4886   -2166.4170489973      1.24e-03  
 4887   -2166.4315283725      1.24e-03  
 4888   -2166.4699009488      1.52e-03  
 4889   -2166.5450445748      7.78e-04  
 4890   -2166.5310557921      8.48e-04  
 4891   -2166.5472141840      5.91e-04  
 4892   -2166.5495239290      5.31e-04  
 4893   -2166.3905250331      1.38e-03  
 4894   -2166.3904301897      1.37e-03  
 4895   -2166.3879118173      1.40e-03  
 4896   -2166.3896352694      1.39e-03  
 4897   -2166.5514798415      4.55e-04  
 4898   -2166.2431601110      2.29e-03  
 4899   -2166.4040297657      1.28e-03  
 4900   -2166.4184330142      1.26e-03  
 4901   -2166.5446738477      7.38e-04  
 4902   -2166.2861182317      2.22e-03  
 4903   -2166.2993109543      2.19e-03  
 4904   -2166.3994027520      1.31e-03  
 4905   -2166.4018456463      1.31e-03  
 4906   -2166.4225032586      1.25e-03  
 4907   -2166.4360382378      1.24e-03  
 4908   -2166.3958193812      1.95e-03  
 4909   -2166.4292017631      1.68e-03  
 4910   -2166.4087338910      1.25e-03  
 4911   -2166.4083874497      1.25e-03  
 4912   -2166.4046501886      1.26e-03  
 4913   -2166.5329751980      7.98e-04  
 4914   -2166.2085602678      3.01e-03  
 4915   -2166.4481561538      1.59e-03  
 4916   -2166.5479548804      6.95e-04  
 4917   -2166.5565116366      3.87e-04  
 4918   -2166.4080001206      1.24e-03  
 4919   -2166.4057536691      1.26e-03  
 4920   -2166.4108168655      1.23e-03  
 4921   -2166.4101496974      1.23e-03  
 4922   -2166.5470923112      5.32e-04  
 4923   -2166.4087713840      1.26e-03  
 4924   -2166.4012046695      1.30e-03  
 4925   -2166.3796601706      1.50e-03  
 4926   -2166.3710965645      1.54e-03  
 4927   -2166.3159614125      2.41e-03  
 4928   -2166.4117433086      1.36e-03  
 4929   -2166.3833631211      1.46e-03  
 4930   -2166.3776294720      1.48e-03  
 4931   -2166.3862459625      1.44e-03  
 4932   -2166.3694860330      1.54e-03  
 4933   -2166.2069675617      2.77e-03  
 4934   -2166.2594182809      2.60e-03  
 4935   -2166.2600783476      2.60e-03  
 4936   -2166.2654944460      2.58e-03  
 4937   -2166.2557572072      2.62e-03  
 4938   -2161.8095676450      7.44e-03  
 4939   -2165.5762502757      3.34e-03  
 4940   -2166.2841993357      2.49e-03  
 4941   -2166.2954139096      2.37e-03  
 4942   -2166.5132909428      1.06e-03  
 4943   -2166.2166986113      2.26e-03  
 4944   -2166.2230825086      2.24e-03  
 4945   -2166.2233827657      2.24e-03  
 4946   -2166.2329049937      2.26e-03  
 4947   -2166.2124411553      2.29e-03  
 4948   -2166.1673843139      2.54e-03  
 4949   -2166.1854594576      2.44e-03  
 4950   -2166.1547303394      2.59e-03  
 4951   -2166.1796961253      2.48e-03  
 4952   -2166.1791931706      2.45e-03  
 4953   -2165.2841962850      4.42e-03  
 4954   -2166.1293870703      2.98e-03  
 4955   -2165.8562881944      2.97e-03  
 4956   -2166.5458622881      6.65e-04  
 4957   -2166.2476189851      2.01e-03  
 4958   -2166.3363258978      1.71e-03  
 4959   -2166.3068030297      1.85e-03  
 4960   -2166.2791741173      1.95e-03  
 4961   -2166.3022994474      1.85e-03  
 4962   -2166.3069873685      1.84e-03  
 4963   -2166.2956907940      1.89e-03  
 4964   -2166.2973332586      1.88e-03  
 4965   -2166.2958475640      1.88e-03  
 4966   -2166.2932226391      1.89e-03  
 4967   -2166.3082332127      1.81e-03  
 4968   -2165.1422209997      4.46e-03  
 4969   -2166.4624136812      1.52e-03  
 4970   -2165.5511855404      4.30e-03  
 4971   -2165.9159099167      2.86e-03  
 4972   -2165.3895640263      4.05e-03  
 4973   -2166.4553247718      1.49e-03  
 4974   -2166.4439727952      1.60e-03  
 4975   -2166.2057932065      2.34e-03  
 4976   -2166.2020767229      2.36e-03  
 4977   -2166.1861879229      2.42e-03  
 4978   -2166.2019243411      2.37e-03  
 4979   -2166.2000515685      2.37e-03  
 4980   -2166.2038611127      2.36e-03  
 4981   -2166.2014643968      2.37e-03  
 4982   -2166.1982011165      2.38e-03  
 4983   -2166.3935985813      1.47e-03  
 4984   -2166.1898164015      2.42e-03  
 4985   -2166.0637515610      3.67e-03  
 4986   -2165.8968424887      4.11e-03  
 4987   -2166.4798451685      1.43e-03  
 4988   -2166.1944630092      2.40e-03  
 4989   -2166.1823194397      2.43e-03  
 4990   -2166.2032199795      2.59e-03  
 4991   -2166.2058659117      2.31e-03  
 4992   -2166.2055073155      2.31e-03  
 4993   -2166.2053464584      2.30e-03  
 4994   -2166.1977434105      2.36e-03  
 4995   -2166.2055364197      2.32e-03  
 4996   -2166.2126475806      2.26e-03  
 4997   -2166.2174128760      2.23e-03  
 4998   -2166.2716163347      2.21e-03  
 4999   -2165.5416524279      3.79e-03  
 5000   -2166.0633857673      2.82e-03  
gen_scfman_exception: SCF failed to converge

 Q-Chem fatal error occurred in module libgscf/gen_scfman/gen_scfman_main.C, line 142:

 Error in gen_scfman


 Please submit a crash report at q-chem.com/reporter 
 
 
