
Running Job 1 of 1 mol_2_2_opt_631g_gga.in
qchem mol_2_2_opt_631g_gga.in_5456.0 /scr/c295_lal/137007/qchem5456/ 1
/usr/software/qchem_511/exe/qcprog.exe_s mol_2_2_opt_631g_gga.in_5456.0 /scr/c295_lal/137007/qchem5456/
Check license passed

                  Welcome to Q-Chem
     A Quantum Leap Into The Future Of Chemistry


 Q-Chem 5.1, Q-Chem, Inc., Pleasanton, CA (2018)

 Yihan Shao,  Zhengting Gan,  E. Epifanovsky,  A. T. B. Gilbert,  M. Wormit,  
 J. Kussmann,  A. W. Lange,  A. Behn,  Jia Deng,  Xintian Feng,  D. Ghosh,  
 M. Goldey,  P. R. Horn,  L. D. Jacobson,  I. Kaliman,  T. Kus,  A. Landau,  
 Jie Liu,  E. I. Proynov,  R. M. Richard,  R. P. Steele,  E. J. Sundstrom,  
 H. L. Woodcock III,  P. M. Zimmerman,  D. Zuev,  B. Albrecht,  E. Alguire,  
 S. A. Baeppler,  D. Barton,  Z. Benda,  Y. A. Bernard,  E. J. Berquist,  
 K. B. Bravaya,  H. Burton,  D. Casanova,  Chun-Min Chang,  Yunqing Chen,  
 A. Chien,  K. D. Closser,  M. P. Coons,  S. Coriani,  S. Dasgupta,  
 A. L. Dempwolff,  M. Diedenhofen,  Hainam Do,  R. G. Edgar,  Po-Tung Fang,  
 S. Faraji,  S. Fatehi,  Qingguo Feng,  K. D. Fenk,  J. Fosso-Tande,  
 Qinghui Ge,  A. Ghysels,  G. Gidofalvi,  J. Gomes,  J. Gonthier,  A. Gunina,  
 D. Hait,  M. W. D. Hanson-Heine,  P. H. P. Harbach,  A. W. Hauser,  
 J. E. Herr,  E. G. Hohenstein,  Z. C. Holden,  Kerwin Hui,  B. C. Huynh,  
 T.-C. Jagau,  Hyunjun Ji,  B. Kaduk,  K. Khistyaev,  Jaehoon Kim,  
 P. Klunzinger,  K. Koh,  D. Kosenkov,  L. Koulias,  T. Kowalczyk,  
 C. M. Krauter,  A. Kunitsa,  Ka Un Lao,  A. Laurent,  K. V. Lawler,  
 Joonho Lee,  D. Lefrancois,  S. Lehtola,  D. S. Levine,  Yi-Pei Li,  
 You-Sheng Lin,  Fenglai Liu,  E. Livshits,  A. Luenser,  P. Manohar,  
 E. Mansoor,  S. F. Manzer,  Shan-Ping Mao,  Yuezhi Mao,  N. Mardirossian,  
 A. V. Marenich,  T. Markovich,  L. A. Martinez-Martinez,  S. A. Maurer,  
 N. J. Mayhall,  S. C. McKenzie,  J.-M. Mewes,  A. F. Morrison,  
 J. W. Mullinax,  K. Nanda,  T. S. Nguyen-Beck,  R. Olivares-Amaya,  
 J. A. Parkhill,  T. M. Perrine,  F. Plasser,  P. Pokhilko,  S. Prager,  
 A. Prociuk,  E. Ramos,  D. R. Rehn,  F. Rob,  M. Schneider,  N. Sergueev,  
 S. M. Sharada,  S. Sharma,  D. W. Small,  T. Stauch,  T. Stein,  
 Yu-Chuan Su,  A. J. W. Thom,  A. Tkatchenko,  T. Tsuchimochi,  N. M. Tubman,  
 L. Vogt,  M. L. Vidal,  O. Vydrov,  M. A. Watson,  J. Wenzel,  
 M. de Wergifosse,  T. A. Wesolowski,  A. White,  J. Witte,  A. Yamada,  
 Jun Yang,  K. Yao,  S. Yeganeh,  S. R. Yost,  Zhi-Qiang You,  A. Zech,  
 Igor Ying Zhang,  Xing Zhang,  Yan Zhao,  Ying Zhu,  B. R. Brooks,  
 G. K. L. Chan,  C. J. Cramer,  M. S. Gordon,  W. J. Hehre,  A. Klamt,  
 M. W. Schmidt,  C. D. Sherrill,  D. G. Truhlar,  A. Aspuru-Guzik,  R. Baer,  
 A. T. Bell,  N. A. Besley,  Jeng-Da Chai,  A. E. DePrince, III,  
 R. A. DiStasio Jr.,  A. Dreuw,  B. D. Dunietz,  T. R. Furlani,  
 Chao-Ping Hsu,  Yousung Jung,  Jing Kong,  D. S. Lambrecht,  WanZhen Liang,  
 C. Ochsenfeld,  V. A. Rassolov,  L. V. Slipchenko,  J. E. Subotnik,  
 T. Van Voorhis,  J. M. Herbert,  A. I. Krylov,  P. M. W. Gill,  M. Head-Gordon

 Contributors to earlier versions of Q-Chem not listed above: 
 R. D. Adamson,  B. Austin,  J. Baker,  G. J. O. Beran,  K. Brandhorst,  
 S. T. Brown,  E. F. C. Byrd,  A. K. Chakraborty,  C.-L. Cheng,  
 Siu Hung Chien,  D. M. Chipman,  D. L. Crittenden,  H. Dachsel,  
 R. J. Doerksen,  A. D. Dutoi,  L. Fusti-Molnar,  W. A. Goddard III,  
 A. Golubeva-Zadorozhnaya,  S. R. Gwaltney,  G. Hawkins,  A. Heyden,  
 S. Hirata,  G. Kedziora,  F. J. Keil,  C. Kelley,  Jihan Kim,  R. A. King,  
 R. Z. Khaliullin,  P. P. Korambath,  W. Kurlancheek,  A. M. Lee,  M. S. Lee,  
 S. V. Levchenko,  Ching Yeh Lin,  D. Liotard,  R. C. Lochan,  I. Lotan,  
 P. E. Maslen,  N. Nair,  D. P. O'Neill,  D. Neuhauser,  E. Neuscamman,  
 C. M. Oana,  R. Olson,  B. Peters,  R. Peverati,  P. A. Pieniazek,  
 Y. M. Rhee,  J. Ritchie,  M. A. Rohrdanz,  E. Rosta,  N. J. Russ,  
 H. F. Schaefer III,  N. E. Schultz,  N. Shenvi,  A. C. Simmonett,  A. Sodt,  
 D. Stuck,  K. S. Thanthiriwatte,  V. Vanovschi,  Tao Wang,  A. Warshel,  
 C. F. Williams,  Q. Wu,  X. Xu,  W. Zhang

 Please cite Q-Chem as follows:
 Y. Shao et al., Mol. Phys. 113, 184-215 (2015)
 DOI: 10.1080/00268976.2014.952696

 Q-Chem 5.1.1 for Intel X86 EM64T Linux

 Parts of Q-Chem use Armadillo 8.300.2 (Tropical Shenanigans).
 http://arma.sourceforge.net/

 Q-Chem begins on Tue Oct 30 21:10:21 2018  

Host: cub-0-25.local
0

     Scratch files written to /scr/c295_lal/137007/qchem5456//
 Aug318 |scratch|qcdevops|jenkins|workspace|build_RNUM -1
Processing $rem in /usr/software/qchem_511/config/preferences.
 MEM_TOTAL  2000 
Input Ideriv = 2
Curr. Ideriv = -1
Max.  Ideriv = 2

Checking the input file for inconsistencies... 	...done.

--------------------------------------------------------------
User input:
--------------------------------------------------------------
$molecule
0 1
C         -0.29308        2.85890       -1.09464
C         -0.81526        1.93416       -0.28393
C          0.06742        1.02282        0.49021
C         -0.33895        0.04839        1.34190
C          0.72170       -0.75666        2.02073
C          0.46944       -1.74845        2.88466
H         -0.94598        3.51986       -1.65587
H          0.78138        2.96856       -1.20876
H         -1.89351        1.88619       -0.22322
H          1.13750        1.16329        0.34946
H          1.76537       -0.53586        1.81089
H         -0.53874       -2.04051        3.15560
H          1.29458       -2.28844        3.33796
C         -1.79601       -0.25668        1.63218
H         -2.52186        0.37649        1.09636
H         -1.98950       -0.12402        2.71727
H         -2.01379       -1.30827        1.35075
$end

$rem
BASIS = 6-31G
METHOD  = BLYP
JOBTYPE = OPT
$end
--------------------------------------------------------------
 ----------------------------------------------------------------
             Standard Nuclear Orientation (Angstroms)
    I     Atom           X                Y                Z
 ----------------------------------------------------------------
    1      C       3.1905697685    -0.4182599718    -0.0000206209
    2      C       2.0327082701     0.2483909671    -0.0000051528
    3      C       0.7393245878    -0.4838084371     0.0000207209
    4      C      -0.4964172026     0.0756274264     0.0000177602
    5      C      -1.6695516791    -0.8504663021     0.0000190916
    6      C      -2.9448519707    -0.4414837597    -0.0000333273
    7      H       4.1299997944     0.1254282389    -0.0000409775
    8      H       3.2175079334    -1.5039796947    -0.0000108893
    9      H       2.0872303280     1.3280377761    -0.0000261631
   10      H       0.8072174045    -1.5700883988     0.0000251894
   11      H      -1.4932940097    -1.9232970279     0.0000666348
   12      H      -3.2185701453     0.6074265301    -0.0000999664
   13      H      -3.7441244643    -1.1757109662    -0.0000372954
   14      C      -0.7383582508     1.5728977948     0.0000164404
   15      H       0.1724977346     2.1935481937     0.0000185068
   16      H      -1.3195096547     1.8506249847     0.9042221788
   17      H      -1.3194960600     1.8506240575    -0.9042066909
 ----------------------------------------------------------------
 Molecular Point Group                 C1    NOp =  1
 Largest Abelian Subgroup              C1    NOp =  1
 Nuclear Repulsion Energy =   264.1590854240 hartrees
 There are       26 alpha and       26 beta electrons
 Requested basis set is 6-31G
 There are 41 shells and 83 basis functions

 Total QAlloc Memory Limit   2000 MB
 Mega-Array Size       188 MB
 MEM_STATIC part       192 MB
 A cutoff of  1.0D-11 yielded    767 shell pairs
 There are      3368 function pairs
 
 -------------------------------------------------------
 OpenMP Integral Computing Module                       
 Release: version 1.0, May 2013, Q-Chem Inc. Pittsburgh 
 -------------------------------------------------------
 Integral Job Info:
 Integral job number is                      11
 Integral operator is                         1
 short-range coefficients                     0
 long-range coefficients              100000000
 Omega coefficients                           0
 if combine SR and LR in K                    0
 Integral screening is                        0
 Integral computing path is                   2
 max size of driver memory is            800000
 size of driver memory is                 45569
 size of scratch memory is              2040132
 max col of scratch BK array                289
 max len of scratch array in speh3           22
 max len of scratch index in speh4            8
 max int batch size is                      520
 min int batch size is                       52
 fixed nKL is                                52
 max L of basis functions is                  1
 order of int derivative is                   0
 number of shells is                         41
 number of basis is                          83
 number of cartesian basis is                83
 number of contracted shell pairs           767
 number of primitive shell pairs           3317
 maxK2 (contraction) of shell pair           36
 max number of K2 of shell pair               1
 max number of CS2 of shell pair            137
 max number of PS2 of shell pair            570
 mem total for path MDJ                  515450
 -------------------------------------------------------
 Smallest overlap matrix eigenvalue = 2.68E-03

 Scale SEOQF with 1.000000e-01/1.000000e-01/1.000000e+00

 Standard Electronic Orientation quadrupole field applied
 Nucleus-field energy     =     0.0000000096 hartrees
 Guess from superposition of atomic densities
 Warning:  Energy on first SCF cycle will be non-variational
 SAD guess density has 52.000000 electrons

 -----------------------------------------------------------------------
  General SCF calculation program by
  Eric Jon Sundstrom, Paul Horn, Yuezhi Mao, Dmitri Zuev, Alec White,
  David Stuck, Shaama M.S., Shane Yost, Joonho Lee, David Small,
  Daniel Levine, Susi Lehtola, Hugh Burton, Evgeny Epifanovsky
 -----------------------------------------------------------------------
 Exchange:  B88      Correlation:  LYP
 Using SG-1 standard quadrature grid
 using 4 threads for integral computing
 -------------------------------------------------------
 OpenMP Integral computing Module                
 Release: version 1.0, May 2013, Q-Chem Inc. Pittsburgh 
 -------------------------------------------------------
 -------------------------------------------------------
 OpenMP BLAS3 based DFT computing Module                
 Release: version 1.0, May 2013, Q-Chem Inc. Pittsburgh 
 -------------------------------------------------------
 A restricted SCF calculation will be
 performed using DIIS
 SCF converges when DIIS error is below 1.0e-08
 ---------------------------------------
  Cycle       Energy         DIIS error
 ---------------------------------------
    1    -273.3749481280      9.95e-02  
    2    -272.2900921669      1.44e-02  
    3    -272.2046065984      1.70e-02  
    4    -272.4997972873      1.81e-03  
    5    -272.5007450587      1.49e-03  
    6    -272.5030851823      4.07e-04  
    7    -272.5032404465      1.16e-04  
    8    -272.5032502399      6.70e-05  
    9    -272.5032548027      1.04e-05  
   10    -272.5032548861      5.05e-06  
   11    -272.5032549118      1.15e-06  
   12    -272.5032549129      2.43e-07  
   13    -272.5032549130      2.93e-08  
   14    -272.5032549130      1.69e-08  
   15    -272.5032549130      9.49e-10  Convergence criterion met
 ---------------------------------------
 SCF time:   CPU 16.97s  wall 4.00s 
 SCF   energy in the final basis set =     -272.5032549130
 Total energy in the final basis set =     -272.5032549130
 
 --------------------------------------------------------------
 
                    Orbital Energies (a.u.)
 --------------------------------------------------------------
 
 Alpha MOs
 -- Occupied --
 -9.930  -9.920  -9.919  -9.917  -9.916  -9.908  -9.906  -0.738
 -0.694  -0.652  -0.612  -0.536  -0.486  -0.464  -0.431  -0.399
 -0.369  -0.366  -0.347  -0.338  -0.315  -0.306  -0.285  -0.274
 -0.239  -0.174
 -- Virtual --
 -0.054   0.022   0.068   0.074   0.088   0.104   0.106   0.134
  0.150   0.154   0.167   0.176   0.197   0.220   0.290   0.310
  0.332   0.365   0.404   0.471   0.481   0.497   0.521   0.537
  0.547   0.569   0.578   0.619   0.624   0.649   0.662   0.669
  0.684   0.698   0.700   0.733   0.806   0.813   0.829   0.848
  0.876   0.889   0.892   0.920   0.947   0.957   0.999   1.040
  1.072   1.088   1.132   1.180   1.240   1.272   1.367   1.419
  1.527
 --------------------------------------------------------------
 
          Ground-State Mulliken Net Atomic Charges

     Atom                 Charge (a.u.)
  ----------------------------------------
      1 C                    -0.277066
      2 C                    -0.023126
      3 C                    -0.164339
      4 C                     0.155273
      5 C                    -0.069586
      6 C                    -0.278439
      7 H                     0.101847
      8 H                     0.107585
      9 H                     0.097838
     10 H                     0.089813
     11 H                     0.094449
     12 H                     0.106229
     13 H                     0.101893
     14 C                    -0.452094
     15 H                     0.130429
     16 H                     0.139648
     17 H                     0.139646
  ----------------------------------------
  Sum of atomic charges =    -0.000000

 -----------------------------------------------------------------
                    Cartesian Multipole Moments
 -----------------------------------------------------------------
    Charge (ESU x 10^10)
                -0.0000
    Dipole Moment (Debye)
         X      -0.0156      Y       0.3481      Z      -0.0000
       Tot       0.3484
    Quadrupole Moments (Debye-Ang)
        XX     -42.0164     XY       0.1904     YY     -39.8264
        XZ       0.0000     YZ      -0.0001     ZZ     -47.0697
    Octopole Moments (Debye-Ang^2)
       XXX       2.2320    XXY       1.0990    XYY       0.4456
       YYY      -2.4254    XXZ      -0.0007    XYZ       0.0001
       YYZ       0.0001    XZZ      -1.2708    YZZ       2.2147
       ZZZ       0.0001
    Hexadecapole Moments (Debye-Ang^3)
      XXXX   -1114.5056   XXXY      11.3757   XXYY    -222.1779
      XYYY       3.4113   YYYY    -261.2639   XXXZ       0.0009
      XXYZ      -0.0006   XYYZ      -0.0002   YYYZ      -0.0003
      XXZZ    -224.2994   XYZZ      -2.6108   YYZZ     -55.1035
      XZZZ      -0.0000   YZZZ      -0.0000   ZZZZ     -55.5752
 -----------------------------------------------------------------
 Calculating analytic gradient of the SCF energy
 Gradient of SCF Energy
            1           2           3           4           5           6
    1  -0.0188187   0.0267029  -0.0237411   0.0133984  -0.0163298   0.0137706
    2   0.0048406   0.0155458  -0.0176018   0.0106866  -0.0160705  -0.0000737
    3  -0.0000001  -0.0000003   0.0000011  -0.0000010  -0.0000008   0.0000017
            7           8           9          10          11          12
    1  -0.0069547  -0.0033204   0.0072999  -0.0031119  -0.0083364   0.0039806
    2   0.0017617   0.0051375  -0.0089280   0.0050779   0.0046398  -0.0044568
    3   0.0000003  -0.0000001  -0.0000005  -0.0000002  -0.0000003  -0.0000005
           13          14          15          16          17
    1   0.0065638   0.0068206  -0.0001401   0.0011088   0.0011072
    2   0.0004766  -0.0022563   0.0051762  -0.0019782  -0.0019775
    3  -0.0000001   0.0000041  -0.0000003   0.0047280  -0.0047310
 Max gradient component =       2.670E-02
 RMS gradient           =       8.603E-03
 Gradient time:  CPU 2.43 s  wall 0.61 s
 Geometry Optimization Parameters
   NAtoms,    NIC,     NZ,  NCons,   NDum,   NFix, NCnnct, MaxDiis
       17     100       0       0       0       0       0       0


** GEOMETRY OPTIMIZATION IN DELOCALIZED INTERNAL COORDINATES **
   Searching for a Minimum

   Optimization Cycle:   1

                       Coordinates (Angstroms)
     ATOM                X               Y               Z
      1  C         3.1905697685   -0.4182599718   -0.0000206209
      2  C         2.0327082701    0.2483909671   -0.0000051528
      3  C         0.7393245878   -0.4838084371    0.0000207209
      4  C        -0.4964172026    0.0756274264    0.0000177602
      5  C        -1.6695516791   -0.8504663021    0.0000190916
      6  C        -2.9448519707   -0.4414837597   -0.0000333273
      7  H         4.1299997944    0.1254282389   -0.0000409775
      8  H         3.2175079334   -1.5039796947   -0.0000108893
      9  H         2.0872303280    1.3280377761   -0.0000261631
     10  H         0.8072174045   -1.5700883988    0.0000251894
     11  H        -1.4932940097   -1.9232970279    0.0000666348
     12  H        -3.2185701453    0.6074265301   -0.0000999664
     13  H        -3.7441244643   -1.1757109662   -0.0000372954
     14  C        -0.7383582508    1.5728977948    0.0000164404
     15  H         0.1724977346    2.1935481937    0.0000185068
     16  H        -1.3195096547    1.8506249847    0.9042221788
     17  H        -1.3194960600    1.8506240575   -0.9042066909
   Point Group: c1    Number of degrees of freedom:    45


   Energy is   -272.503254913


 Attempting to Generate Delocalized Internal Coordinates

 44 Hessian modes will be used to form the next step
  Hessian Eigenvalues:
     0.006971    0.009890    0.010997    0.019732    0.019988    0.020400
     0.028164    0.030440    0.030440    0.030864    0.030864    0.068339
     0.074386    0.160000    0.160000    0.160000    0.160000    0.160000
     0.160000    0.160000    0.160000    0.160000    0.160000    0.220000
     0.220000    0.220000    0.250000    0.250000    0.306874    0.325823
     0.325830    0.329482    0.334390    0.338631    0.349982    0.351367
     0.352727    0.353479    0.353588    0.355110    0.358711    0.536663
     0.573677    0.580961

 Minimum Search - Taking Simple RFO Step
 Searching for Lamda that Minimizes Along All modes
 Value Taken    Lamda =  -0.01005583
 Step Taken.  Stepsize is  0.190504

                             Maximum     Tolerance    Cnvgd?
         Gradient           0.036337      0.000300      NO
         Displacement       0.124285      0.001200      NO
         Energy change     *********      0.000001      NO


 New Cartesian Coordinates Obtained by Inverse Iteration

 Displacement from previous Coordinates is:  0.399312
 ----------------------------------------------------------------
             Standard Nuclear Orientation (Angstroms)
    I     Atom           X                Y                Z
 ----------------------------------------------------------------
    1      C       3.2462011093    -0.4475320744    -0.0000105594
    2      C       2.0543629313     0.2155850174    -0.0000059016
    3      C       0.7582389491    -0.4694428716     0.0000068967
    4      C      -0.5011467181     0.0902760970     0.0000052035
    5      C      -1.6702839489    -0.8159288181     0.0000084896
    6      C      -2.9789590541    -0.4407333191    -0.0000242895
    7      H       4.1990536700     0.0876950330    -0.0000212879
    8      H       3.2953470489    -1.5401055933    -0.0000029427
    9      H       2.0665080556     1.3087991145    -0.0000158963
   10      H       0.8329801149    -1.5630283535     0.0000134043
   11      H      -1.4321132246    -1.8856232594     0.0000417993
   12      H      -3.2930018125     0.6048779722    -0.0000587127
   13      H      -3.7769936268    -1.1873235706    -0.0000197065
   14      C      -0.7778714340     1.5856645930     0.0000033956
   15      H       0.1420283898     2.1850009216     0.0000087753
   16      H      -1.3657412480     1.8786637971     0.8895664881
   17      H      -1.3657268180     1.8786667254    -0.8895697163
 ----------------------------------------------------------------
 Molecular Point Group                 C1    NOp =  1
 Largest Abelian Subgroup              C1    NOp =  1
 Nuclear Repulsion Energy =   262.2088977238 hartrees
 There are       26 alpha and       26 beta electrons
 Applying Cartesian multipole field
    Component          Value
    ---------          -----
     (2,0,0)        1.00000E-11
     (0,2,0)        2.00000E-11
     (0,0,2)       -3.00000E-10
 Nucleus-field energy     =     0.0000000099 hartrees
 Requested basis set is 6-31G
 There are 41 shells and 83 basis functions
 A cutoff of  1.0D-11 yielded    764 shell pairs
 There are      3362 function pairs
 Smallest overlap matrix eigenvalue = 2.69E-03
 Guess MOs from SCF MO coefficient file

 -----------------------------------------------------------------------
  General SCF calculation program by
  Eric Jon Sundstrom, Paul Horn, Yuezhi Mao, Dmitri Zuev, Alec White,
  David Stuck, Shaama M.S., Shane Yost, Joonho Lee, David Small,
  Daniel Levine, Susi Lehtola, Hugh Burton, Evgeny Epifanovsky
 -----------------------------------------------------------------------
 Exchange:  B88      Correlation:  LYP
 Using SG-1 standard quadrature grid
 using 4 threads for integral computing
 -------------------------------------------------------
 OpenMP Integral computing Module                
 Release: version 1.0, May 2013, Q-Chem Inc. Pittsburgh 
 -------------------------------------------------------
 -------------------------------------------------------
 OpenMP BLAS3 based DFT computing Module                
 Release: version 1.0, May 2013, Q-Chem Inc. Pittsburgh 
 -------------------------------------------------------
 A restricted SCF calculation will be
 performed using DIIS
 SCF converges when DIIS error is below 1.0e-08
 ---------------------------------------
  Cycle       Energy         DIIS error
 ---------------------------------------
    1    -272.5068689769      9.36e-04  
    2    -272.5080903895      4.42e-04  
    3    -272.5079225739      5.96e-04  
    4    -272.5082485297      1.99e-04  
    5    -272.5082902938      2.16e-05  
    6    -272.5082902794      2.06e-05  
    7    -272.5082907374      6.44e-06  
    8    -272.5082907834      6.84e-07  
    9    -272.5082907838      4.56e-07  
   10    -272.5082907840      6.14e-08  
   11    -272.5082907840      2.48e-08  
   12    -272.5082907840      3.01e-09  Convergence criterion met
 ---------------------------------------
 SCF time:   CPU 13.21s  wall 3.00s 
 SCF   energy in the final basis set =     -272.5082907840
 Total energy in the final basis set =     -272.5082907840
 
 --------------------------------------------------------------
 
                    Orbital Energies (a.u.)
 --------------------------------------------------------------
 
 Alpha MOs
 -- Occupied --
 -9.934  -9.926  -9.922  -9.922  -9.915  -9.915  -9.912  -0.737
 -0.691  -0.647  -0.612  -0.544  -0.487  -0.463  -0.429  -0.396
 -0.371  -0.364  -0.347  -0.341  -0.316  -0.308  -0.285  -0.274
 -0.237  -0.172
 -- Virtual --
 -0.062   0.018   0.067   0.074   0.086   0.103   0.106   0.130
  0.150   0.156   0.166   0.175   0.195   0.221   0.277   0.312
  0.331   0.363   0.400   0.472   0.481   0.492   0.521   0.531
  0.548   0.569   0.570   0.604   0.627   0.638   0.652   0.664
  0.669   0.692   0.706   0.728   0.798   0.806   0.823   0.850
  0.875   0.885   0.892   0.915   0.949   0.962   0.992   1.033
  1.056   1.081   1.125   1.161   1.231   1.277   1.355   1.416
  1.526
 --------------------------------------------------------------
 
          Ground-State Mulliken Net Atomic Charges

     Atom                 Charge (a.u.)
  ----------------------------------------
      1 C                    -0.281540
      2 C                    -0.025874
      3 C                    -0.162477
      4 C                     0.158466
      5 C                    -0.076146
      6 C                    -0.280172
      7 H                     0.107848
      8 H                     0.109546
      9 H                     0.097014
     10 H                     0.090156
     11 H                     0.093024
     12 H                     0.106972
     13 H                     0.106444
     14 C                    -0.454000
     15 H                     0.128628
     16 H                     0.141057
     17 H                     0.141056
  ----------------------------------------
  Sum of atomic charges =    -0.000000

 -----------------------------------------------------------------
                    Cartesian Multipole Moments
 -----------------------------------------------------------------
    Charge (ESU x 10^10)
                -0.0000
    Dipole Moment (Debye)
         X      -0.0180      Y       0.3561      Z      -0.0000
       Tot       0.3565
    Quadrupole Moments (Debye-Ang)
        XX     -41.4509     XY      -0.2620     YY     -40.1372
        XZ       0.0000     YZ      -0.0001     ZZ     -47.3022
    Octopole Moments (Debye-Ang^2)
       XXX       2.3147    XXY       0.7025    XYY       0.2156
       YYY      -2.1913    XXZ      -0.0002    XYZ       0.0001
       YYZ       0.0002    XZZ      -1.4243    YZZ       2.1819
       ZZZ       0.0005
    Hexadecapole Moments (Debye-Ang^3)
      XXXX   -1128.8146   XXXY      14.3419   XXYY    -227.6569
      XYYY       7.5851   YYYY    -262.8486   XXXZ      -0.0001
      XXYZ      -0.0004   XYYZ      -0.0002   YYYZ      -0.0001
      XXZZ    -231.2160   XYZZ      -0.2744   YYZZ     -55.2771
      XZZZ      -0.0004   YZZZ       0.0001   ZZZZ     -55.7683
 -----------------------------------------------------------------
 Calculating analytic gradient of the SCF energy
 Gradient of SCF Energy
            1           2           3           4           5           6
    1   0.0023394   0.0025955  -0.0061771   0.0042116  -0.0000922  -0.0032646
    2  -0.0035377   0.0064576  -0.0058613   0.0045121  -0.0045497   0.0026013
    3  -0.0000001  -0.0000000   0.0000002  -0.0000003  -0.0000001  -0.0000002
            7           8           9          10          11          12
    1   0.0000829  -0.0002283   0.0005361   0.0017208  -0.0002376   0.0005264
    2   0.0006159   0.0005265  -0.0014801   0.0013673   0.0010222  -0.0004068
    3   0.0000000  -0.0000000  -0.0000001   0.0000000   0.0000003  -0.0000001
           13          14          15          16          17
    1   0.0001105  -0.0015882  -0.0008912   0.0001782   0.0001781
    2  -0.0004784  -0.0009983  -0.0003394   0.0002742   0.0002745
    3   0.0000000   0.0000010  -0.0000002   0.0005125  -0.0005129
 Max gradient component =       6.458E-03
 RMS gradient           =       2.124E-03
 Gradient time:  CPU 2.42 s  wall 0.61 s
 Geometry Optimization Parameters
   NAtoms,    NIC,     NZ,  NCons,   NDum,   NFix, NCnnct, MaxDiis
       17     100       0       0       0       0       0       0

 Cartesian Hessian Update
 Hessian Updated using BFGS Update


** GEOMETRY OPTIMIZATION IN DELOCALIZED INTERNAL COORDINATES **
   Searching for a Minimum

   Optimization Cycle:   2

                       Coordinates (Angstroms)
     ATOM                X               Y               Z
      1  C         3.2462011093   -0.4475320744   -0.0000105594
      2  C         2.0543629313    0.2155850174   -0.0000059016
      3  C         0.7582389491   -0.4694428716    0.0000068967
      4  C        -0.5011467181    0.0902760970    0.0000052035
      5  C        -1.6702839489   -0.8159288181    0.0000084896
      6  C        -2.9789590541   -0.4407333191   -0.0000242895
      7  H         4.1990536700    0.0876950330   -0.0000212879
      8  H         3.2953470489   -1.5401055933   -0.0000029427
      9  H         2.0665080556    1.3087991145   -0.0000158963
     10  H         0.8329801149   -1.5630283535    0.0000134043
     11  H        -1.4321132246   -1.8856232594    0.0000417993
     12  H        -3.2930018125    0.6048779722   -0.0000587127
     13  H        -3.7769936268   -1.1873235706   -0.0000197065
     14  C        -0.7778714340    1.5856645930    0.0000033956
     15  H         0.1420283898    2.1850009216    0.0000087753
     16  H        -1.3657412480    1.8786637971    0.8895664881
     17  H        -1.3657268180    1.8786667254   -0.8895697163
   Point Group: c1    Number of degrees of freedom:    45


   Energy is   -272.508290784

 Hessian Updated using BFGS Update

 34 Hessian modes will be used to form the next step
  Hessian Eigenvalues:
     0.009890    0.013863    0.019732    0.019988    0.020400    0.028164
     0.030440    0.030440    0.030864    0.030864    0.068339    0.074298
     0.153268    0.165919    0.211797    0.222089    0.249578    0.260406
     0.306296    0.314593    0.325826    0.326176    0.333138    0.334956
     0.349525    0.351146    0.352677    0.353535    0.354580    0.355412
     0.358068    0.540937    0.576517    0.624714

 Minimum Search - Taking Simple RFO Step
 Searching for Lamda that Minimizes Along All modes
 Value Taken    Lamda =  -0.00038057
 Step Taken.  Stepsize is  0.039804

                             Maximum     Tolerance    Cnvgd?
         Gradient           0.004736      0.000300      NO
         Displacement       0.018386      0.001200      NO
         Energy change     -0.005036      0.000001      NO


 New Cartesian Coordinates Obtained by Inverse Iteration

 Displacement from previous Coordinates is:  0.120981
 ----------------------------------------------------------------
             Standard Nuclear Orientation (Angstroms)
    I     Atom           X                Y                Z
 ----------------------------------------------------------------
    1      C       3.2376501810    -0.4392943030    -0.0000023961
    2      C       2.0400523227     0.2096018306    -0.0000036275
    3      C       0.7543351337    -0.4734375822     0.0000010372
    4      C      -0.5036682480     0.0875478094    -0.0000020496
    5      C      -1.6695960585    -0.8126947117     0.0000000385
    6      C      -2.9786762058    -0.4461269349    -0.0000094464
    7      H       4.1866920056     0.1020464511    -0.0000064156
    8      H       3.2987222200    -1.5323814763     0.0000023955
    9      H       2.0391820450     1.3055145930    -0.0000085361
   10      H       0.8173794582    -1.5699553297     0.0000075105
   11      H      -1.4269265704    -1.8833276615     0.0000082190
   12      H      -3.3011603438     0.5980807724    -0.0000171938
   13      H      -3.7742314811    -1.1952017284    -0.0000088223
   14      C      -0.7609104015     1.5872648975    -0.0000077109
   15      H       0.1685697587     2.1741523067    -0.0000009625
   16      H      -1.3472737192     1.8868618564     0.8873497087
   17      H      -1.3472577124     1.8868606217    -0.8873763092
 ----------------------------------------------------------------
 Molecular Point Group                 C1    NOp =  1
 Largest Abelian Subgroup              C1    NOp =  1
 Nuclear Repulsion Energy =   262.6433926648 hartrees
 There are       26 alpha and       26 beta electrons
 Applying Cartesian multipole field
    Component          Value
    ---------          -----
     (2,0,0)        1.00000E-11
     (0,2,0)        2.00000E-11
     (0,0,2)       -3.00000E-10
 Nucleus-field energy     =     0.0000000099 hartrees
 Requested basis set is 6-31G
 There are 41 shells and 83 basis functions
 A cutoff of  1.0D-11 yielded    765 shell pairs
 There are      3363 function pairs
 Smallest overlap matrix eigenvalue = 2.63E-03
 Guess MOs from SCF MO coefficient file

 -----------------------------------------------------------------------
  General SCF calculation program by
  Eric Jon Sundstrom, Paul Horn, Yuezhi Mao, Dmitri Zuev, Alec White,
  David Stuck, Shaama M.S., Shane Yost, Joonho Lee, David Small,
  Daniel Levine, Susi Lehtola, Hugh Burton, Evgeny Epifanovsky
 -----------------------------------------------------------------------
 Exchange:  B88      Correlation:  LYP
 Using SG-1 standard quadrature grid
 using 4 threads for integral computing
 -------------------------------------------------------
 OpenMP Integral computing Module                
 Release: version 1.0, May 2013, Q-Chem Inc. Pittsburgh 
 -------------------------------------------------------
 -------------------------------------------------------
 OpenMP BLAS3 based DFT computing Module                
 Release: version 1.0, May 2013, Q-Chem Inc. Pittsburgh 
 -------------------------------------------------------
 A restricted SCF calculation will be
 performed using DIIS
 SCF converges when DIIS error is below 1.0e-08
 ---------------------------------------
  Cycle       Energy         DIIS error
 ---------------------------------------
    1    -272.5083294546      3.08e-04  
    2    -272.5084829041      9.30e-05  
    3    -272.5084511565      1.97e-04  
    4    -272.5084906042      2.77e-05  
    5    -272.5084913773      5.36e-06  
    6    -272.5084913940      3.44e-06  
    7    -272.5084914053      9.50e-07  
    8    -272.5084914061      3.42e-07  
    9    -272.5084914063      1.21e-07  
   10    -272.5084914063      1.24e-08  
   11    -272.5084914063      5.17e-09  Convergence criterion met
 ---------------------------------------
 SCF time:   CPU 12.37s  wall 3.00s 
 SCF   energy in the final basis set =     -272.5084914063
 Total energy in the final basis set =     -272.5084914063
 
 --------------------------------------------------------------
 
                    Orbital Energies (a.u.)
 --------------------------------------------------------------
 
 Alpha MOs
 -- Occupied --
 -9.933  -9.925  -9.922  -9.921  -9.915  -9.915  -9.912  -0.738
 -0.692  -0.648  -0.612  -0.545  -0.486  -0.463  -0.429  -0.397
 -0.371  -0.364  -0.347  -0.342  -0.316  -0.307  -0.285  -0.275
 -0.238  -0.172
 -- Virtual --
 -0.063   0.019   0.068   0.073   0.085   0.104   0.106   0.130
  0.151   0.157   0.166   0.176   0.197   0.222   0.279   0.313
  0.333   0.366   0.402   0.473   0.480   0.492   0.520   0.531
  0.547   0.568   0.573   0.602   0.629   0.639   0.653   0.665
  0.670   0.694   0.706   0.726   0.798   0.806   0.822   0.850
  0.875   0.885   0.891   0.916   0.951   0.963   0.990   1.035
  1.056   1.084   1.126   1.159   1.234   1.276   1.358   1.421
  1.524
 --------------------------------------------------------------
 
          Ground-State Mulliken Net Atomic Charges

     Atom                 Charge (a.u.)
  ----------------------------------------
      1 C                    -0.282173
      2 C                    -0.026377
      3 C                    -0.161113
      4 C                     0.159922
      5 C                    -0.076882
      6 C                    -0.280901
      7 H                     0.107862
      8 H                     0.109254
      9 H                     0.097025
     10 H                     0.090096
     11 H                     0.093040
     12 H                     0.106723
     13 H                     0.106702
     14 C                    -0.453726
     15 H                     0.128883
     16 H                     0.140833
     17 H                     0.140833
  ----------------------------------------
  Sum of atomic charges =    -0.000000

 -----------------------------------------------------------------
                    Cartesian Multipole Moments
 -----------------------------------------------------------------
    Charge (ESU x 10^10)
                -0.0000
    Dipole Moment (Debye)
         X      -0.0280      Y       0.3548      Z      -0.0000
       Tot       0.3560
    Quadrupole Moments (Debye-Ang)
        XX     -41.4609     XY      -0.2431     YY     -40.1816
        XZ       0.0000     YZ      -0.0000     ZZ     -47.2851
    Octopole Moments (Debye-Ang^2)
       XXX       2.2571    XXY       0.6709    XYY       0.2121
       YYY      -2.1332    XXZ       0.0001    XYZ      -0.0000
       YYZ       0.0002    XZZ      -1.3363    YZZ       2.1848
       ZZZ       0.0005
    Hexadecapole Moments (Debye-Ang^3)
      XXXX   -1122.7160   XXXY      13.0708   XXYY    -226.8455
      XYYY       6.3826   YYYY    -263.2133   XXXZ      -0.0004
      XXYZ      -0.0000   XYYZ      -0.0002   YYYZ       0.0003
      XXZZ    -230.1005   XYZZ      -0.6774   YYZZ     -55.3008
      XZZZ      -0.0005   YZZZ       0.0003   ZZZZ     -55.6990
 -----------------------------------------------------------------
 Calculating analytic gradient of the SCF energy
 Gradient of SCF Energy
            1           2           3           4           5           6
    1   0.0005424  -0.0004730  -0.0019599   0.0021287  -0.0000072  -0.0008934
    2  -0.0011263   0.0010697  -0.0003164   0.0008071  -0.0008181   0.0006168
    3   0.0000000  -0.0000001  -0.0000000  -0.0000000   0.0000001  -0.0000001
            7           8           9          10          11          12
    1   0.0001488  -0.0000265  -0.0003775   0.0006210   0.0002519   0.0000698
    2   0.0001649  -0.0000699   0.0001913   0.0000437   0.0000935  -0.0000387
    3  -0.0000000   0.0000000   0.0000000   0.0000001   0.0000000   0.0000001
           13          14          15          16          17
    1  -0.0000697  -0.0006667   0.0004311   0.0001401   0.0001402
    2  -0.0001950  -0.0004386  -0.0000575   0.0000366   0.0000368
    3  -0.0000000   0.0000001  -0.0000001  -0.0001634   0.0001634
 Max gradient component =       2.129E-03
 RMS gradient           =       5.525E-04
 Gradient time:  CPU 2.64 s  wall 0.66 s
 Geometry Optimization Parameters
   NAtoms,    NIC,     NZ,  NCons,   NDum,   NFix, NCnnct, MaxDiis
       17     100       0       0       0       0       0       0

 Cartesian Hessian Update
 Hessian Updated using BFGS Update


** GEOMETRY OPTIMIZATION IN DELOCALIZED INTERNAL COORDINATES **
   Searching for a Minimum

   Optimization Cycle:   3

                       Coordinates (Angstroms)
     ATOM                X               Y               Z
      1  C         3.2376501810   -0.4392943030   -0.0000023961
      2  C         2.0400523227    0.2096018306   -0.0000036275
      3  C         0.7543351337   -0.4734375822    0.0000010372
      4  C        -0.5036682480    0.0875478094   -0.0000020496
      5  C        -1.6695960585   -0.8126947117    0.0000000385
      6  C        -2.9786762058   -0.4461269349   -0.0000094464
      7  H         4.1866920056    0.1020464511   -0.0000064156
      8  H         3.2987222200   -1.5323814763    0.0000023955
      9  H         2.0391820450    1.3055145930   -0.0000085361
     10  H         0.8173794582   -1.5699553297    0.0000075105
     11  H        -1.4269265704   -1.8833276615    0.0000082190
     12  H        -3.3011603438    0.5980807724   -0.0000171938
     13  H        -3.7742314811   -1.1952017284   -0.0000088223
     14  C        -0.7609104015    1.5872648975   -0.0000077109
     15  H         0.1685697587    2.1741523067   -0.0000009625
     16  H        -1.3472737192    1.8868618564    0.8873497087
     17  H        -1.3472577124    1.8868606217   -0.8873763092
   Point Group: c1    Number of degrees of freedom:    45


   Energy is   -272.508491406

 Hessian Updated using BFGS Update

 34 Hessian modes will be used to form the next step
  Hessian Eigenvalues:
     0.006971    0.009890    0.010997    0.013863    0.019988    0.028164
     0.030440    0.030440    0.068339    0.073326    0.140049    0.160822
     0.166515    0.203355    0.220320    0.225457    0.249931    0.272227
     0.299192    0.313575    0.325826    0.326258    0.334233    0.348056
     0.349606    0.351189    0.352674    0.353528    0.353950    0.355355
     0.359791    0.557296    0.576956    0.609630

 Minimum Search - Taking Simple RFO Step
 Searching for Lamda that Minimizes Along All modes
 Value Taken    Lamda =  -0.00003133
 Step Taken.  Stepsize is  0.012881

                             Maximum     Tolerance    Cnvgd?
         Gradient           0.001129      0.000300      NO
         Displacement       0.007279      0.001200      NO
         Energy change     -0.000201      0.000001      NO


 New Cartesian Coordinates Obtained by Inverse Iteration

 Displacement from previous Coordinates is:  0.028492
 ----------------------------------------------------------------
             Standard Nuclear Orientation (Angstroms)
    I     Atom           X                Y                Z
 ----------------------------------------------------------------
    1      C       3.2395496152    -0.4405077544     0.0000000282
    2      C       2.0424034091     0.2069465915    -0.0000027250
    3      C       0.7554993434    -0.4721916977    -0.0000007287
    4      C      -0.5042565273     0.0884008779    -0.0000041213
    5      C      -1.6681749307    -0.8115668538    -0.0000026786
    6      C      -2.9765593285    -0.4462641889    -0.0000057064
    7      H       4.1884642820     0.1003450516    -0.0000020012
    8      H       3.3012435099    -1.5335786879     0.0000041331
    9      H       2.0449093162     1.3027715784    -0.0000068600
   10      H       0.8118808815    -1.5692742019     0.0000037243
   11      H      -1.4264270108    -1.8826198393     0.0000006926
   12      H      -3.2999686602     0.5978823566    -0.0000087558
   13      H      -3.7721337953    -1.1948922547    -0.0000047172
   14      C      -0.7634238518     1.5886575692    -0.0000100538
   15      H       0.1630157167     2.1794930075    -0.0000040161
   16      H      -1.3515768715     1.8859568163     0.8872571313
   17      H      -1.3515627138     1.8859530409    -0.8872879062
 ----------------------------------------------------------------
 Molecular Point Group                 C1    NOp =  1
 Largest Abelian Subgroup              C1    NOp =  1
 Nuclear Repulsion Energy =   262.6371228194 hartrees
 There are       26 alpha and       26 beta electrons
 Applying Cartesian multipole field
    Component          Value
    ---------          -----
     (2,0,0)        1.00000E-11
     (0,2,0)        2.00000E-11
     (0,0,2)       -3.00000E-10
 Nucleus-field energy     =     0.0000000099 hartrees
 Requested basis set is 6-31G
 There are 41 shells and 83 basis functions
 A cutoff of  1.0D-11 yielded    765 shell pairs
 There are      3363 function pairs
 Smallest overlap matrix eigenvalue = 2.64E-03
 Guess MOs from SCF MO coefficient file

 -----------------------------------------------------------------------
  General SCF calculation program by
  Eric Jon Sundstrom, Paul Horn, Yuezhi Mao, Dmitri Zuev, Alec White,
  David Stuck, Shaama M.S., Shane Yost, Joonho Lee, David Small,
  Daniel Levine, Susi Lehtola, Hugh Burton, Evgeny Epifanovsky
 -----------------------------------------------------------------------
 Exchange:  B88      Correlation:  LYP
 Using SG-1 standard quadrature grid
 using 4 threads for integral computing
 -------------------------------------------------------
 OpenMP Integral computing Module                
 Release: version 1.0, May 2013, Q-Chem Inc. Pittsburgh 
 -------------------------------------------------------
 -------------------------------------------------------
 OpenMP BLAS3 based DFT computing Module                
 Release: version 1.0, May 2013, Q-Chem Inc. Pittsburgh 
 -------------------------------------------------------
 A restricted SCF calculation will be
 performed using DIIS
 SCF converges when DIIS error is below 1.0e-08
 ---------------------------------------
  Cycle       Energy         DIIS error
 ---------------------------------------
    1    -272.5084970117      7.41e-05  
    2    -272.5085051579      2.78e-05  
    3    -272.5085047627      3.41e-05  
    4    -272.5085058234      7.11e-06  
    5    -272.5085058739      1.56e-06  
    6    -272.5085058756      8.92e-07  
    7    -272.5085058765      3.03e-07  
    8    -272.5085058766      7.12e-08  
    9    -272.5085058766      3.51e-08  
   10    -272.5085058766      2.92e-09  Convergence criterion met
 ---------------------------------------
 SCF time:   CPU 11.60s  wall 3.00s 
 SCF   energy in the final basis set =     -272.5085058766
 Total energy in the final basis set =     -272.5085058766
 
 --------------------------------------------------------------
 
                    Orbital Energies (a.u.)
 --------------------------------------------------------------
 
 Alpha MOs
 -- Occupied --
 -9.933  -9.925  -9.922  -9.921  -9.915  -9.915  -9.912  -0.738
 -0.692  -0.648  -0.612  -0.545  -0.486  -0.463  -0.429  -0.397
 -0.371  -0.363  -0.347  -0.342  -0.315  -0.307  -0.285  -0.275
 -0.239  -0.172
 -- Virtual --
 -0.063   0.020   0.068   0.073   0.085   0.104   0.106   0.130
  0.151   0.156   0.166   0.176   0.197   0.221   0.279   0.314
  0.333   0.367   0.402   0.472   0.480   0.492   0.520   0.531
  0.547   0.569   0.573   0.601   0.629   0.639   0.654   0.666
  0.671   0.694   0.706   0.727   0.798   0.806   0.822   0.850
  0.875   0.885   0.891   0.916   0.951   0.963   0.991   1.035
  1.056   1.084   1.126   1.159   1.234   1.277   1.360   1.421
  1.525
 --------------------------------------------------------------
 
          Ground-State Mulliken Net Atomic Charges

     Atom                 Charge (a.u.)
  ----------------------------------------
      1 C                    -0.281803
      2 C                    -0.026433
      3 C                    -0.161499
      4 C                     0.160686
      5 C                    -0.077316
      6 C                    -0.280817
      7 H                     0.107965
      8 H                     0.109164
      9 H                     0.096837
     10 H                     0.089810
     11 H                     0.093204
     12 H                     0.106667
     13 H                     0.106684
     14 C                    -0.453681
     15 H                     0.128997
     16 H                     0.140767
     17 H                     0.140767
  ----------------------------------------
  Sum of atomic charges =    -0.000000

 -----------------------------------------------------------------
                    Cartesian Multipole Moments
 -----------------------------------------------------------------
    Charge (ESU x 10^10)
                -0.0000
    Dipole Moment (Debye)
         X      -0.0307      Y       0.3552      Z      -0.0000
       Tot       0.3566
    Quadrupole Moments (Debye-Ang)
        XX     -41.4344     XY      -0.2276     YY     -40.1900
        XZ       0.0000     YZ      -0.0000     ZZ     -47.2819
    Octopole Moments (Debye-Ang^2)
       XXX       2.2626    XXY       0.6843    XYY       0.1730
       YYY      -2.1197    XXZ       0.0002    XYZ      -0.0000
       YYZ       0.0002    XZZ      -1.3651    YZZ       2.1748
       ZZZ       0.0005
    Hexadecapole Moments (Debye-Ang^3)
      XXXX   -1122.6967   XXXY      13.5217   XXYY    -226.9931
      XYYY       6.8160   YYYY    -263.2880   XXXZ      -0.0005
      XXYZ       0.0000   XYYZ      -0.0002   YYYZ       0.0003
      XXZZ    -230.1283   XYZZ      -0.5344   YYZZ     -55.3289
      XZZZ      -0.0006   YZZZ       0.0003   ZZZZ     -55.6940
 -----------------------------------------------------------------
 Calculating analytic gradient of the SCF energy
 Gradient of SCF Energy
            1           2           3           4           5           6
    1  -0.0000680   0.0001529  -0.0001643  -0.0000302  -0.0002096   0.0002371
    2   0.0001043  -0.0001952   0.0001045  -0.0001389   0.0002287  -0.0000795
    3   0.0000000  -0.0000000   0.0000000   0.0000000   0.0000000  -0.0000000
            7           8           9          10          11          12
    1   0.0000262  -0.0000525  -0.0000095   0.0000263   0.0000948   0.0000171
    2  -0.0000404  -0.0000219  -0.0000250  -0.0000359  -0.0000424   0.0000723
    3  -0.0000000   0.0000000   0.0000000   0.0000000  -0.0000000   0.0000000
           13          14          15          16          17
    1   0.0000091  -0.0000595  -0.0000057   0.0000178   0.0000178
    2   0.0000005  -0.0000219   0.0000783   0.0000061   0.0000062
    3  -0.0000000  -0.0000000  -0.0000000  -0.0000769   0.0000769
 Max gradient component =       2.371E-04
 RMS gradient           =       8.180E-05
 Gradient time:  CPU 2.48 s  wall 0.62 s
 Geometry Optimization Parameters
   NAtoms,    NIC,     NZ,  NCons,   NDum,   NFix, NCnnct, MaxDiis
       17     100       0       0       0       0       0       0

 Cartesian Hessian Update
 Hessian Updated using BFGS Update


** GEOMETRY OPTIMIZATION IN DELOCALIZED INTERNAL COORDINATES **
   Searching for a Minimum

   Optimization Cycle:   4

                       Coordinates (Angstroms)
     ATOM                X               Y               Z
      1  C         3.2395496152   -0.4405077544    0.0000000282
      2  C         2.0424034091    0.2069465915   -0.0000027250
      3  C         0.7554993434   -0.4721916977   -0.0000007287
      4  C        -0.5042565273    0.0884008779   -0.0000041213
      5  C        -1.6681749307   -0.8115668538   -0.0000026786
      6  C        -2.9765593285   -0.4462641889   -0.0000057064
      7  H         4.1884642820    0.1003450516   -0.0000020012
      8  H         3.3012435099   -1.5335786879    0.0000041331
      9  H         2.0449093162    1.3027715784   -0.0000068600
     10  H         0.8118808815   -1.5692742019    0.0000037243
     11  H        -1.4264270108   -1.8826198393    0.0000006926
     12  H        -3.2999686602    0.5978823566   -0.0000087558
     13  H        -3.7721337953   -1.1948922547   -0.0000047172
     14  C        -0.7634238518    1.5886575692   -0.0000100538
     15  H         0.1630157167    2.1794930075   -0.0000040161
     16  H        -1.3515768715    1.8859568163    0.8872571313
     17  H        -1.3515627138    1.8859530409   -0.8872879062
   Point Group: c1    Number of degrees of freedom:    45


   Energy is   -272.508505877

 Hessian Updated using BFGS Update

 32 Hessian modes will be used to form the next step
  Hessian Eigenvalues:
     0.006971    0.009890    0.028164    0.030440    0.030440    0.068339
     0.074397    0.132421    0.158655    0.160827    0.165784    0.204281
     0.219406    0.228872    0.251933    0.282062    0.305524    0.314111
     0.325284    0.325826    0.334527    0.349424    0.350125    0.352318
     0.352719    0.353460    0.353802    0.355793    0.363948    0.562226
     0.579601    0.617863

 Minimum Search - Taking Simple RFO Step
 Searching for Lamda that Minimizes Along All modes
 Value Taken    Lamda =  -0.00000127
 Step Taken.  Stepsize is  0.002318

                             Maximum     Tolerance    Cnvgd?
         Gradient           0.000379      0.000300      NO
         Displacement       0.001454      0.001200      NO
         Energy change     -0.000014      0.000001      NO


 New Cartesian Coordinates Obtained by Inverse Iteration

 Displacement from previous Coordinates is:  0.012705
 ----------------------------------------------------------------
             Standard Nuclear Orientation (Angstroms)
    I     Atom           X                Y                Z
 ----------------------------------------------------------------
    1      C       3.2397855208    -0.4392569447     0.0000000542
    2      C       2.0419320862     0.2070511752    -0.0000024010
    3      C       0.7555456778    -0.4731599100    -0.0000008971
    4      C      -0.5043542997     0.0873786330    -0.0000040534
    5      C      -1.6690745320    -0.8120168667    -0.0000024139
    6      C      -2.9773918644    -0.4456752381    -0.0000059497
    7      H       4.1879170418     0.1029136616    -0.0000015896
    8      H       3.3030850527    -1.5322249508     0.0000035167
    9      H       2.0436594580     1.3028795559    -0.0000058874
   10      H       0.8120902354    -1.5701801078     0.0000029135
   11      H      -1.4287450030    -1.8832832615     0.0000015736
   12      H      -3.3001538340     0.5986001340    -0.0000102143
   13      H      -3.7735800535    -1.1936368661    -0.0000046609
   14      C      -0.7624015003     1.5877500634    -0.0000099182
   15      H       0.1647987906     2.1772619686    -0.0000056061
   16      H      -1.3501208491     1.8855576304     0.8875170919
   17      H      -1.3501095432     1.8855527348    -0.8875461188
 ----------------------------------------------------------------
 Molecular Point Group                 C1    NOp =  1
 Largest Abelian Subgroup              C1    NOp =  1
 Nuclear Repulsion Energy =   262.6284312115 hartrees
 There are       26 alpha and       26 beta electrons
 Applying Cartesian multipole field
    Component          Value
    ---------          -----
     (2,0,0)        1.00000E-11
     (0,2,0)        2.00000E-11
     (0,0,2)       -3.00000E-10
 Nucleus-field energy     =     0.0000000099 hartrees
 Requested basis set is 6-31G
 There are 41 shells and 83 basis functions
 A cutoff of  1.0D-11 yielded    765 shell pairs
 There are      3363 function pairs
 Smallest overlap matrix eigenvalue = 2.64E-03
 Guess MOs from SCF MO coefficient file

 -----------------------------------------------------------------------
  General SCF calculation program by
  Eric Jon Sundstrom, Paul Horn, Yuezhi Mao, Dmitri Zuev, Alec White,
  David Stuck, Shaama M.S., Shane Yost, Joonho Lee, David Small,
  Daniel Levine, Susi Lehtola, Hugh Burton, Evgeny Epifanovsky
 -----------------------------------------------------------------------
 Exchange:  B88      Correlation:  LYP
 Using SG-1 standard quadrature grid
 using 4 threads for integral computing
 -------------------------------------------------------
 OpenMP Integral computing Module                
 Release: version 1.0, May 2013, Q-Chem Inc. Pittsburgh 
 -------------------------------------------------------
 -------------------------------------------------------
 OpenMP BLAS3 based DFT computing Module                
 Release: version 1.0, May 2013, Q-Chem Inc. Pittsburgh 
 -------------------------------------------------------
 A restricted SCF calculation will be
 performed using DIIS
 SCF converges when DIIS error is below 1.0e-08
 ---------------------------------------
  Cycle       Energy         DIIS error
 ---------------------------------------
    1    -272.5085052036      2.76e-05  
    2    -272.5085064728      4.62e-06  
    3    -272.5085063361      1.19e-05  
    4    -272.5085064904      2.01e-06  
    5    -272.5085064948      6.80e-07  
    6    -272.5085064952      1.49e-07  
    7    -272.5085064952      2.20e-08  
    8    -272.5085064952      1.09e-08  
    9    -272.5085064952      4.65e-09  Convergence criterion met
 ---------------------------------------
 SCF time:   CPU 10.08s  wall 2.00s 
 SCF   energy in the final basis set =     -272.5085064952
 Total energy in the final basis set =     -272.5085064952
 
 --------------------------------------------------------------
 
                    Orbital Energies (a.u.)
 --------------------------------------------------------------
 
 Alpha MOs
 -- Occupied --
 -9.933  -9.925  -9.922  -9.921  -9.915  -9.915  -9.912  -0.738
 -0.692  -0.648  -0.612  -0.545  -0.486  -0.463  -0.429  -0.397
 -0.371  -0.363  -0.347  -0.342  -0.315  -0.307  -0.285  -0.275
 -0.238  -0.172
 -- Virtual --
 -0.063   0.019   0.068   0.073   0.085   0.104   0.106   0.130
  0.151   0.156   0.166   0.176   0.197   0.222   0.279   0.314
  0.333   0.367   0.402   0.473   0.480   0.492   0.520   0.531
  0.547   0.569   0.573   0.601   0.629   0.639   0.654   0.666
  0.671   0.694   0.706   0.727   0.798   0.806   0.822   0.850
  0.875   0.885   0.891   0.916   0.951   0.963   0.991   1.035
  1.056   1.084   1.126   1.159   1.234   1.277   1.360   1.421
  1.525
 --------------------------------------------------------------
 
          Ground-State Mulliken Net Atomic Charges

     Atom                 Charge (a.u.)
  ----------------------------------------
      1 C                    -0.281766
      2 C                    -0.026625
      3 C                    -0.161159
      4 C                     0.160336
      5 C                    -0.077272
      6 C                    -0.280735
      7 H                     0.107932
      8 H                     0.109178
      9 H                     0.096879
     10 H                     0.089825
     11 H                     0.093186
     12 H                     0.106699
     13 H                     0.106700
     14 C                    -0.453644
     15 H                     0.129000
     16 H                     0.140733
     17 H                     0.140733
  ----------------------------------------
  Sum of atomic charges =    -0.000000

 -----------------------------------------------------------------
                    Cartesian Multipole Moments
 -----------------------------------------------------------------
    Charge (ESU x 10^10)
                -0.0000
    Dipole Moment (Debye)
         X      -0.0313      Y       0.3544      Z      -0.0000
       Tot       0.3558
    Quadrupole Moments (Debye-Ang)
        XX     -41.4337     XY      -0.2239     YY     -40.1911
        XZ       0.0000     YZ      -0.0000     ZZ     -47.2823
    Octopole Moments (Debye-Ang^2)
       XXX       2.2474    XXY       0.6830    XYY       0.1822
       YYY      -2.1166    XXZ       0.0001    XYZ      -0.0000
       YYZ       0.0002    XZZ      -1.3599    YZZ       2.1818
       ZZZ       0.0005
    Hexadecapole Moments (Debye-Ang^3)
      XXXX   -1122.9379   XXXY      13.4003   XXYY    -226.9910
      XYYY       6.6813   YYYY    -263.1561   XXXZ      -0.0005
      XXYZ       0.0000   XYYZ      -0.0002   YYYZ       0.0003
      XXZZ    -230.1831   XYZZ      -0.5856   YYZZ     -55.3007
      XZZZ      -0.0006   YZZZ       0.0003   ZZZZ     -55.6994
 -----------------------------------------------------------------
 Calculating analytic gradient of the SCF energy
 Gradient of SCF Energy
            1           2           3           4           5           6
    1  -0.0000155   0.0000655  -0.0000099   0.0000188  -0.0001192   0.0000294
    2   0.0000458  -0.0000492   0.0000375  -0.0000008   0.0000387  -0.0000335
    3   0.0000000  -0.0000000  -0.0000000  -0.0000000   0.0000000  -0.0000000
            7           8           9          10          11          12
    1  -0.0000057  -0.0000191  -0.0000015  -0.0000123   0.0000022   0.0000094
    2  -0.0000366  -0.0000218  -0.0000010  -0.0000130   0.0000010   0.0000190
    3  -0.0000000   0.0000000   0.0000000  -0.0000000  -0.0000000  -0.0000000
           13          14          15          16          17
    1  -0.0000039   0.0000422   0.0000156   0.0000020   0.0000020
    2   0.0000259  -0.0000272   0.0000027   0.0000063   0.0000063
    3  -0.0000000  -0.0000000   0.0000000   0.0000093  -0.0000093
 Max gradient component =       1.192E-04
 RMS gradient           =       2.630E-05
 Gradient time:  CPU 2.37 s  wall 0.59 s
 Geometry Optimization Parameters
   NAtoms,    NIC,     NZ,  NCons,   NDum,   NFix, NCnnct, MaxDiis
       17     100       0       0       0       0       0       0

 Cartesian Hessian Update
 Hessian Updated using BFGS Update


** GEOMETRY OPTIMIZATION IN DELOCALIZED INTERNAL COORDINATES **
   Searching for a Minimum

   Optimization Cycle:   5

                       Coordinates (Angstroms)
     ATOM                X               Y               Z
      1  C         3.2397855208   -0.4392569447    0.0000000542
      2  C         2.0419320862    0.2070511752   -0.0000024010
      3  C         0.7555456778   -0.4731599100   -0.0000008971
      4  C        -0.5043542997    0.0873786330   -0.0000040534
      5  C        -1.6690745320   -0.8120168667   -0.0000024139
      6  C        -2.9773918644   -0.4456752381   -0.0000059497
      7  H         4.1879170418    0.1029136616   -0.0000015896
      8  H         3.3030850527   -1.5322249508    0.0000035167
      9  H         2.0436594580    1.3028795559   -0.0000058874
     10  H         0.8120902354   -1.5701801078    0.0000029135
     11  H        -1.4287450030   -1.8832832615    0.0000015736
     12  H        -3.3001538340    0.5986001340   -0.0000102143
     13  H        -3.7735800535   -1.1936368661   -0.0000046609
     14  C        -0.7624015003    1.5877500634   -0.0000099182
     15  H         0.1647987906    2.1772619686   -0.0000056061
     16  H        -1.3501208491    1.8855576304    0.8875170919
     17  H        -1.3501095432    1.8855527348   -0.8875461188
   Point Group: c1    Number of degrees of freedom:    45


   Energy is   -272.508506495

 Hessian Updated using BFGS Update

 39 Hessian modes will be used to form the next step
  Hessian Eigenvalues:
     0.006971    0.009890    0.010997    0.013863    0.019732    0.019988
     0.020400    0.028164    0.030440    0.030864    0.030864    0.068339
     0.073880    0.132231    0.147797    0.160595    0.161171    0.165132
     0.203398    0.215421    0.227002    0.256787    0.283039    0.312305
     0.321571    0.325826    0.331597    0.339806    0.348249    0.350566
     0.352310    0.353318    0.353699    0.354746    0.356526    0.392342
     0.559565    0.573745    0.600016

 Minimum Search - Taking Simple RFO Step
 Searching for Lamda that Minimizes Along All modes
 Value Taken    Lamda =   0.00000000
 Step Taken.  Stepsize is  0.000481

                             Maximum     Tolerance    Cnvgd?
         Gradient           0.000059      0.000300     YES
         Displacement       0.000209      0.001200     YES
         Energy change     -0.000001      0.000001     YES

 Final energy is   -272.508506495237     


 ******************************
 **  OPTIMIZATION CONVERGED  **
 ******************************

                       Coordinates (Angstroms)
     ATOM                X               Y               Z
      1  C         3.2397855208   -0.4392569447    0.0000000542
      2  C         2.0419320862    0.2070511752   -0.0000024010
      3  C         0.7555456778   -0.4731599100   -0.0000008971
      4  C        -0.5043542997    0.0873786330   -0.0000040534
      5  C        -1.6690745320   -0.8120168667   -0.0000024139
      6  C        -2.9773918644   -0.4456752381   -0.0000059497
      7  H         4.1879170418    0.1029136616   -0.0000015896
      8  H         3.3030850527   -1.5322249508    0.0000035167
      9  H         2.0436594580    1.3028795559   -0.0000058874
     10  H         0.8120902354   -1.5701801078    0.0000029135
     11  H        -1.4287450030   -1.8832832615    0.0000015736
     12  H        -3.3001538340    0.5986001340   -0.0000102143
     13  H        -3.7735800535   -1.1936368661   -0.0000046609
     14  C        -0.7624015003    1.5877500634   -0.0000099182
     15  H         0.1647987906    2.1772619686   -0.0000056061
     16  H        -1.3501208491    1.8855576304    0.8875170919
     17  H        -1.3501095432    1.8855527348   -0.8875461188

Z-matrix Print:
$molecule
0 1
C 
C  1 1.378968
H  2 1.098476 1 116.935254
C  2 1.455155 1 128.146535 3 180.000000 0
H  4 1.095830 2 117.959156 1 0.000000 0
C  4 1.361090 2 123.781846 1 -180.000000 0
H  6 1.092201 4 121.888444 2 180.000000 0
H  6 1.094799 4 121.663911 2 -0.000000 0
C  1 1.471559 2 118.340101 3 -0.000000 0
H  9 1.097893 1 115.030807 2 0.000000 0
C  9 1.358639 1 126.681960 2 -180.000000 0
H  11 1.092411 9 121.146103 1 180.000000 0
H  11 1.093017 9 122.817965 1 -0.000000 0
C  1 1.522400 2 123.743387 3 -180.000000 0
H  14 1.098738 1 112.689349 2 -0.000000 0
H  14 1.105354 1 110.832971 2 -120.783959 0
H  14 1.105354 1 110.832976 2 120.783314 0
$end

 
 --------------------------------------------------------------
 
                    Orbital Energies (a.u.)
 --------------------------------------------------------------
 
 Alpha MOs
 -- Occupied --
 -9.933  -9.925  -9.922  -9.921  -9.915  -9.915  -9.912  -0.738
 -0.692  -0.648  -0.612  -0.545  -0.486  -0.463  -0.429  -0.397
 -0.371  -0.363  -0.347  -0.342  -0.315  -0.307  -0.285  -0.275
 -0.238  -0.172
 -- Virtual --
 -0.063   0.019   0.068   0.073   0.085   0.104   0.106   0.130
  0.151   0.156   0.166   0.176   0.197   0.222   0.279   0.314
  0.333   0.367   0.402   0.473   0.480   0.492   0.520   0.531
  0.547   0.569   0.573   0.601   0.629   0.639   0.654   0.666
  0.671   0.694   0.706   0.727   0.798   0.806   0.822   0.850
  0.875   0.885   0.891   0.916   0.951   0.963   0.991   1.035
  1.056   1.084   1.126   1.159   1.234   1.277   1.360   1.421
  1.525
 --------------------------------------------------------------
 
          Ground-State Mulliken Net Atomic Charges

     Atom                 Charge (a.u.)
  ----------------------------------------
      1 C                    -0.281766
      2 C                    -0.026625
      3 C                    -0.161159
      4 C                     0.160336
      5 C                    -0.077272
      6 C                    -0.280735
      7 H                     0.107932
      8 H                     0.109178
      9 H                     0.096879
     10 H                     0.089825
     11 H                     0.093186
     12 H                     0.106699
     13 H                     0.106700
     14 C                    -0.453644
     15 H                     0.129000
     16 H                     0.140733
     17 H                     0.140733
  ----------------------------------------
  Sum of atomic charges =    -0.000000

 -----------------------------------------------------------------
                    Cartesian Multipole Moments
 -----------------------------------------------------------------
    Charge (ESU x 10^10)
                -0.0000
    Dipole Moment (Debye)
         X      -0.0313      Y       0.3544      Z      -0.0000
       Tot       0.3558
    Quadrupole Moments (Debye-Ang)
        XX     -41.4337     XY      -0.2239     YY     -40.1911
        XZ       0.0000     YZ      -0.0000     ZZ     -47.2823
    Octopole Moments (Debye-Ang^2)
       XXX       2.2474    XXY       0.6830    XYY       0.1822
       YYY      -2.1166    XXZ       0.0001    XYZ      -0.0000
       YYZ       0.0002    XZZ      -1.3599    YZZ       2.1818
       ZZZ       0.0005
    Hexadecapole Moments (Debye-Ang^3)
      XXXX   -1122.9379   XXXY      13.4003   XXYY    -226.9910
      XYYY       6.6813   YYYY    -263.1561   XXXZ      -0.0005
      XXYZ       0.0000   XYYZ      -0.0002   YYYZ       0.0003
      XXZZ    -230.1831   XYZZ      -0.5856   YYZZ     -55.3007
      XZZZ      -0.0006   YZZZ       0.0003   ZZZZ     -55.6994
 -----------------------------------------------------------------
Archival summary:
1\1\cub-0-25.local\OPT\ProcedureUnspecified\6-31G\710\c295_lal\TueOct3021:10:412018TueOct3021:10:412018\0\\#,OPT,ProcedureUnspecified,6-31G,\\0,1\C\C,1,1.37897\H,2,1.09848,1,116.935\C,2,1.45516,1,128.147,3,180,0\H,4,1.09583,2,117.959,1,0,0\C,4,1.36109,2,123.782,1,-180,0\H,6,1.0922,4,121.888,2,180,0\H,6,1.0948,4,121.664,2,-0,0\C,1,1.47156,2,118.34,3,-0,0\H,9,1.09789,1,115.031,2,0,0\C,9,1.35864,1,126.682,2,-180,0\H,11,1.09241,9,121.146,1,180,0\H,11,1.09302,9,122.818,1,-0,0\C,1,1.5224,2,123.743,3,-180,0\H,14,1.09874,1,112.689,2,-0,0\H,14,1.10535,1,110.833,2,-120.784,0\H,14,1.10535,1,110.833,2,120.783,0\\\@

 Total job time:  19.70s(wall), 78.35s(cpu) 
 Tue Oct 30 21:10:41 2018

        *************************************************************
        *                                                           *
        *  Thank you very much for using Q-Chem.  Have a nice day.  *
        *                                                           *
        *************************************************************


