
Running Job 1 of 1 sys_2_car_1_epox_opt_sto3g_gga.in
qchem sys_2_car_1_epox_opt_sto3g_gga.in_29267.0 /scr/c295_lal/157314/qchem29267/ 1
/usr/software/qchem_511/exe/qcprog.exe_s sys_2_car_1_epox_opt_sto3g_gga.in_29267.0 /scr/c295_lal/157314/qchem29267/
Check license passed

                  Welcome to Q-Chem
     A Quantum Leap Into The Future Of Chemistry


 Q-Chem 5.1, Q-Chem, Inc., Pleasanton, CA (2018)

 Yihan Shao,  Zhengting Gan,  E. Epifanovsky,  A. T. B. Gilbert,  M. Wormit,  
 J. Kussmann,  A. W. Lange,  A. Behn,  Jia Deng,  Xintian Feng,  D. Ghosh,  
 M. Goldey,  P. R. Horn,  L. D. Jacobson,  I. Kaliman,  T. Kus,  A. Landau,  
 Jie Liu,  E. I. Proynov,  R. M. Richard,  R. P. Steele,  E. J. Sundstrom,  
 H. L. Woodcock III,  P. M. Zimmerman,  D. Zuev,  B. Albrecht,  E. Alguire,  
 S. A. Baeppler,  D. Barton,  Z. Benda,  Y. A. Bernard,  E. J. Berquist,  
 K. B. Bravaya,  H. Burton,  D. Casanova,  Chun-Min Chang,  Yunqing Chen,  
 A. Chien,  K. D. Closser,  M. P. Coons,  S. Coriani,  S. Dasgupta,  
 A. L. Dempwolff,  M. Diedenhofen,  Hainam Do,  R. G. Edgar,  Po-Tung Fang,  
 S. Faraji,  S. Fatehi,  Qingguo Feng,  K. D. Fenk,  J. Fosso-Tande,  
 Qinghui Ge,  A. Ghysels,  G. Gidofalvi,  J. Gomes,  J. Gonthier,  A. Gunina,  
 D. Hait,  M. W. D. Hanson-Heine,  P. H. P. Harbach,  A. W. Hauser,  
 J. E. Herr,  E. G. Hohenstein,  Z. C. Holden,  Kerwin Hui,  B. C. Huynh,  
 T.-C. Jagau,  Hyunjun Ji,  B. Kaduk,  K. Khistyaev,  Jaehoon Kim,  
 P. Klunzinger,  K. Koh,  D. Kosenkov,  L. Koulias,  T. Kowalczyk,  
 C. M. Krauter,  A. Kunitsa,  Ka Un Lao,  A. Laurent,  K. V. Lawler,  
 Joonho Lee,  D. Lefrancois,  S. Lehtola,  D. S. Levine,  Yi-Pei Li,  
 You-Sheng Lin,  Fenglai Liu,  E. Livshits,  A. Luenser,  P. Manohar,  
 E. Mansoor,  S. F. Manzer,  Shan-Ping Mao,  Yuezhi Mao,  N. Mardirossian,  
 A. V. Marenich,  T. Markovich,  L. A. Martinez-Martinez,  S. A. Maurer,  
 N. J. Mayhall,  S. C. McKenzie,  J.-M. Mewes,  A. F. Morrison,  
 J. W. Mullinax,  K. Nanda,  T. S. Nguyen-Beck,  R. Olivares-Amaya,  
 J. A. Parkhill,  T. M. Perrine,  F. Plasser,  P. Pokhilko,  S. Prager,  
 A. Prociuk,  E. Ramos,  D. R. Rehn,  F. Rob,  M. Schneider,  N. Sergueev,  
 S. M. Sharada,  S. Sharma,  D. W. Small,  T. Stauch,  T. Stein,  
 Yu-Chuan Su,  A. J. W. Thom,  A. Tkatchenko,  T. Tsuchimochi,  N. M. Tubman,  
 L. Vogt,  M. L. Vidal,  O. Vydrov,  M. A. Watson,  J. Wenzel,  
 M. de Wergifosse,  T. A. Wesolowski,  A. White,  J. Witte,  A. Yamada,  
 Jun Yang,  K. Yao,  S. Yeganeh,  S. R. Yost,  Zhi-Qiang You,  A. Zech,  
 Igor Ying Zhang,  Xing Zhang,  Yan Zhao,  Ying Zhu,  B. R. Brooks,  
 G. K. L. Chan,  C. J. Cramer,  M. S. Gordon,  W. J. Hehre,  A. Klamt,  
 M. W. Schmidt,  C. D. Sherrill,  D. G. Truhlar,  A. Aspuru-Guzik,  R. Baer,  
 A. T. Bell,  N. A. Besley,  Jeng-Da Chai,  A. E. DePrince, III,  
 R. A. DiStasio Jr.,  A. Dreuw,  B. D. Dunietz,  T. R. Furlani,  
 Chao-Ping Hsu,  Yousung Jung,  Jing Kong,  D. S. Lambrecht,  WanZhen Liang,  
 C. Ochsenfeld,  V. A. Rassolov,  L. V. Slipchenko,  J. E. Subotnik,  
 T. Van Voorhis,  J. M. Herbert,  A. I. Krylov,  P. M. W. Gill,  M. Head-Gordon

 Contributors to earlier versions of Q-Chem not listed above: 
 R. D. Adamson,  B. Austin,  J. Baker,  G. J. O. Beran,  K. Brandhorst,  
 S. T. Brown,  E. F. C. Byrd,  A. K. Chakraborty,  C.-L. Cheng,  
 Siu Hung Chien,  D. M. Chipman,  D. L. Crittenden,  H. Dachsel,  
 R. J. Doerksen,  A. D. Dutoi,  L. Fusti-Molnar,  W. A. Goddard III,  
 A. Golubeva-Zadorozhnaya,  S. R. Gwaltney,  G. Hawkins,  A. Heyden,  
 S. Hirata,  G. Kedziora,  F. J. Keil,  C. Kelley,  Jihan Kim,  R. A. King,  
 R. Z. Khaliullin,  P. P. Korambath,  W. Kurlancheek,  A. M. Lee,  M. S. Lee,  
 S. V. Levchenko,  Ching Yeh Lin,  D. Liotard,  R. C. Lochan,  I. Lotan,  
 P. E. Maslen,  N. Nair,  D. P. O'Neill,  D. Neuhauser,  E. Neuscamman,  
 C. M. Oana,  R. Olson,  B. Peters,  R. Peverati,  P. A. Pieniazek,  
 Y. M. Rhee,  J. Ritchie,  M. A. Rohrdanz,  E. Rosta,  N. J. Russ,  
 H. F. Schaefer III,  N. E. Schultz,  N. Shenvi,  A. C. Simmonett,  A. Sodt,  
 D. Stuck,  K. S. Thanthiriwatte,  V. Vanovschi,  Tao Wang,  A. Warshel,  
 C. F. Williams,  Q. Wu,  X. Xu,  W. Zhang

 Please cite Q-Chem as follows:
 Y. Shao et al., Mol. Phys. 113, 184-215 (2015)
 DOI: 10.1080/00268976.2014.952696

 Q-Chem 5.1.1 for Intel X86 EM64T Linux

 Parts of Q-Chem use Armadillo 8.300.2 (Tropical Shenanigans).
 http://arma.sourceforge.net/

 Q-Chem begins on Tue Nov 27 22:49:45 2018  

Host: cub-0-12.local
0

     Scratch files written to /scr/c295_lal/157314/qchem29267//
 Aug318 |scratch|qcdevops|jenkins|workspace|build_RNUM -1
Processing $rem in /usr/software/qchem_511/config/preferences.
 MEM_TOTAL  2000 
Input Ideriv = 2
Curr. Ideriv = -1
Max.  Ideriv = 2

Checking the input file for inconsistencies... 	...done.

--------------------------------------------------------------
User input:
--------------------------------------------------------------
$molecule
2 3
Fe         0.29287       -0.25576        0.08878
O          0.53560       -1.96218        0.74805
H         -1.33811       -4.65395        1.32837
H         -2.06831        0.13155        2.84637
H         -3.83821       -1.76685        3.01587
O          1.19969       -1.71685        2.60387
H         -0.34831       -0.30515        3.01007
H         -3.40891       -4.25215        2.51877
C         -1.05921       -5.19045        2.25117
C         -1.33701       -0.42045        3.46607
H          5.68359       -3.24015        1.61527
C         -1.77071       -1.85785        3.59227
H          3.43529       -2.51485        2.42617
H         -1.57441       -6.16705        2.24907
H          0.02169       -5.39675        2.21507
C         -3.24011       -1.99135        3.92447
C         -0.96021       -2.94095        3.43697
C          0.51549       -2.87745        3.25797
C         -3.02791       -4.42475        3.54407
H          0.97939       -3.81175        2.93347
C          5.96699       -3.39535        2.66117
C         -1.48431       -4.39045        3.50337
H         -1.34591        0.07655        4.45527
C          3.73839       -2.69645        3.46307
H         -3.50781       -1.19615        4.64587
C          1.44789       -1.99825        4.03457
C         -3.61661       -3.36525        4.46517
H         -3.34791       -5.44185        3.83267
H         -4.71201       -3.46875        4.53387
H          6.98479       -3.74355        2.84917
C          5.09419       -3.16355        3.66787
C          2.80649       -2.44515        4.42167
H          0.97289       -1.27365        4.70957
C         -0.91261       -5.08745        4.75717
H         -3.22491       -3.48595        5.49197
H          0.19099       -5.06525        4.76327
H         -1.22371       -6.14685        4.78507
H          5.42539       -3.33555        4.69747
H         -1.26131       -4.59885        5.68277
C          3.00389       -2.59775        5.90237
H          2.80059       -1.64495        6.42577
H          4.02159       -2.91235        6.16737
H          2.30019       -3.33985        6.32557
$end

$rem
BASIS = STO-3G
METHOD  = BLYP
JOBTYPE = OPT
MAX_SCF_CYCLES = 500
SCF_ALGORITHM = DIIS_GDM
$end
--------------------------------------------------------------
 ----------------------------------------------------------------
             Standard Nuclear Orientation (Angstroms)
    I     Atom           X                Y                Z
 ----------------------------------------------------------------
    1      Fe     -0.2651435580     3.6600742574     0.2214037576
    2      O      -0.3385819123     2.0261512839     1.0759951962
    3      H       1.7735863384    -0.0134628191     2.6482247567
    4      H       2.1675416354     2.0464969954    -1.9712872389
    5      H       4.0938193946     0.8262953875    -0.7199835785
    6      O      -0.9436481768     0.7375987245    -0.3092114045
    7      H       0.4977486352     1.4904030019    -1.6911883508
    8      H       3.8513598791    -0.4663607298     1.4887211405
    9      C       1.5782609273    -1.0814087159     2.4519676666
   10      C       1.5105432174     1.1571645385    -1.9401000636
   11      H      -5.3231609721     0.0977188364     1.6436207604
   12      C       2.0664345766     0.1573995859    -0.9594901888
   13      H      -3.1110309174     0.1568027770     0.4854059707
   14      H       2.1719177601    -1.6759028746     3.1684390688
   15      H       0.5175526450    -1.2819312252     2.6685233707
   16      C       3.5542772980    -0.0537805004    -1.1299086662
   17      C       1.3425532958    -0.5052579930    -0.0155543995
   18      C      -0.1394622723    -0.4554572963     0.1065663875
   19      C       3.5285068479    -1.3814321849     0.9552401171
   20      H      -0.5375004239    -0.8639919828     1.0382771741
   21      C      -5.5494211936    -0.8130632400     1.0800679841
   22      C       1.9869945043    -1.4603533332     1.0104224228
   23      H       1.5190721280     0.7413964160    -2.9660966406
   24      C      -3.3550949568    -0.7662134744    -0.0517006521
   25      H       3.7848094508    -0.0510187033    -2.2121616814
   26      C      -1.1085690568    -0.5416416769    -1.0331152578
   27      C       4.0650422705    -1.3278504719    -0.4684142968
   28      H       3.9431251229    -2.2372954408     1.5171761841
   29      H       5.1671464417    -1.3536082957    -0.4744168217
   30      H      -6.5263329103    -1.2693621313     1.2530965932
   31      C      -4.6580383127    -1.3419429516     0.2113454851
   32      C      -2.4084590156    -1.2411665095    -0.9054004058
   33      H      -0.6676979463    -0.5326166841    -2.0390210056
   34      C       1.5270301684    -2.9069051550     0.7265475091
   35      H       3.7273056481    -2.2109444962    -1.0414714826
   36      H       0.4265651383    -2.9912651223     0.7445231415
   37      H       1.9255418968    -3.5956279541     1.4925366007
   38      H      -4.9311767249    -2.2555910117    -0.3271674953
   39      H       1.8719799623    -3.2514088309    -0.2630907415
   40      C      -2.5313862318    -2.4691627086    -1.7607601222
   41      H      -2.3861677422    -2.2200303219    -2.8284449700
   42      H      -3.5078037156    -2.9612100753    -1.6637563265
   43      H      -1.7518999034    -3.2129829504    -1.5075075769
 ----------------------------------------------------------------
 Molecular Point Group                 C1    NOp =  1
 Largest Abelian Subgroup              C1    NOp =  1
 Nuclear Repulsion Energy =  1765.6722991337 hartrees
 There are       81 alpha and       79 beta electrons
 Requested basis set is STO-3G
 There are 65 shells and 132 basis functions

 Total QAlloc Memory Limit   2000 MB
 Mega-Array Size       188 MB
 MEM_STATIC part       192 MB
 A cutoff of  1.0D-12 yielded   1671 shell pairs
 There are      7440 function pairs (      7529 Cartesian)
 
 -------------------------------------------------------
 OpenMP Integral Computing Module                       
 Release: version 1.0, May 2013, Q-Chem Inc. Pittsburgh 
 -------------------------------------------------------
 Integral Job Info:
 Integral job number is                      11
 Integral operator is                         1
 short-range coefficients                     0
 long-range coefficients              100000000
 Omega coefficients                           0
 if combine SR and LR in K                    0
 Integral screening is                        0
 Integral computing path is                   2
 max size of driver memory is            800000
 size of driver memory is                593474
 size of scratch memory is             10861360
 max col of scratch BK array               1296
 max len of scratch array in speh3          155
 max len of scratch index in speh4           18
 max int batch size is                      520
 min int batch size is                       52
 fixed nKL is                                52
 max L of basis functions is                  2
 order of int derivative is                   0
 number of shells is                         65
 number of basis is                         133
 number of cartesian basis is               133
 number of contracted shell pairs          1671
 number of primitive shell pairs           8899
 maxK2 (contraction) of shell pair            9
 max number of K2 of shell pair               1
 max number of CS2 of shell pair            232
 max number of PS2 of shell pair           1038
 mem total for path MDJ                  534602
 -------------------------------------------------------
 Smallest overlap matrix eigenvalue = 1.90E-01

 Scale SEOQF with 1.000000e-02/1.000000e-01/1.000000e-01

 Standard Electronic Orientation quadrupole field applied
 Nucleus-field energy     =     0.0000000269 hartrees
 Guess from superposition of atomic densities
 Warning:  Energy on first SCF cycle will be non-variational
 SAD guess density has 162.000000 electrons

 -----------------------------------------------------------------------
  General SCF calculation program by
  Eric Jon Sundstrom, Paul Horn, Yuezhi Mao, Dmitri Zuev, Alec White,
  David Stuck, Shaama M.S., Shane Yost, Joonho Lee, David Small,
  Daniel Levine, Susi Lehtola, Hugh Burton, Evgeny Epifanovsky
 -----------------------------------------------------------------------
 Exchange:  B88      Correlation:  LYP
 Using SG-1 standard quadrature grid
 using 8 threads for integral computing
 -------------------------------------------------------
 OpenMP Integral computing Module                
 Release: version 1.0, May 2013, Q-Chem Inc. Pittsburgh 
 -------------------------------------------------------
 -------------------------------------------------------
 OpenMP BLAS3 based DFT computing Module                
 Release: version 1.0, May 2013, Q-Chem Inc. Pittsburgh 
 -------------------------------------------------------
 A unrestricted SCF calculation will be
 performed using DIIS, GDM
 SCF converges when RMS gradient is below 1.0e-08
 ---------------------------------------
  Cycle       Energy         DIIS error
 ---------------------------------------
    1   -2012.3112483403      4.04e-02  
    2   -2013.5344025081      3.22e-03  Done DIIS. Switching to GDM
 ---------------------------------------
  Cycle       Energy        RMS Gradient
 ---------------------------------------
    1   -2013.5344025081      3.21e-01   Descent step
    2   -2013.3081257640      1.29e+00  Line search: overstep
    3   -2013.6047925262      2.98e-01   Descent step
    4   -2013.2644695402      4.80e-01  Line search: overstep
    5   -2013.6433620514      3.41e-01   Descent step
    6   -2012.7512283428      2.65e+00  Line search: overstep
    7   -2013.6619050512      1.32e-01   Descent step
    8   -2013.4418503047      7.20e-01  Line search: overstep
    9   -2013.6778641325      3.14e-01   Descent step
   10   -2012.4470770144      3.63e+00  Line search: overstep
   11   -2013.6899750834      1.04e-01   Normal BFGS step
   12   -2013.7333089694      1.13e-01   Descent step
   13   -2013.6770268081      6.96e-01  Line search: overstep
   14   -2013.7540982905      3.05e-01   Descent step
   15   -2012.9718969303      7.20e-01  Line search: overstep
   16   -2013.7608455244      1.11e-01   Dog-leg BFGS step
   17   -2013.6327197996      9.40e-01  Line search: overstep
   18   -2013.7657894421      3.88e-01   Descent step
   19   -2012.9198401285      1.16e+00  Line search: overstep
   20   -2013.7763195254      9.59e-02   Dog-leg BFGS step
   21   -2013.8101655905      4.72e-01   Descent step
   22   -2013.6691326096      4.18e-01  Line search: overstep
   23   -2013.8350991405      1.37e-01   Dog-leg BFGS step
   24   -2013.7710996347      3.84e-01  Line search: overstep
   25   -2013.8442533783      1.79e-01   Descent step
   26   -2013.6292522831      7.95e-01  Line search: overstep
   27   -2013.8523555148      9.80e-02   Dog-leg BFGS step
   28   -2013.8174013316      1.62e-01  Line search: overstep
   29   -2013.8595837124      3.68e-02   Dog-leg BFGS step
   30   -2013.8367627669      1.26e-01  Line search: overstep
   31   -2013.8651338783      5.27e-02   Normal BFGS step
   32   -2013.8643642291      5.49e-02  Line search: overstep
   33   -2013.8670753442      3.59e-02   Normal BFGS step
   34   -2013.8686452653      3.19e-02   Normal BFGS step
   35   -2013.8692178903      4.16e-02   Normal BFGS step
   36   -2013.8708520581      2.18e-02   Normal BFGS step
   37   -2013.8713863759      1.44e-02   Normal BFGS step
   38   -2013.8718066025      1.55e-02   Normal BFGS step
   39   -2013.8721225342      1.09e-02   Normal BFGS step
   40   -2013.8721566401      1.24e-02   Normal BFGS step
   41   -2013.8724767349      5.06e-03   Normal BFGS step
   42   -2013.8724691993      8.95e-03  Line search: overstep
   43   -2013.8725303344      4.09e-03   Normal BFGS step
   44   -2013.8725598610      2.60e-03   Normal BFGS step
   45   -2013.8725661538      2.59e-03   Normal BFGS step
   46   -2013.8725755344      1.94e-03   Normal BFGS step
   47   -2013.8725751741      8.44e-04  Line search: overstep
   48   -2013.8725779482      5.89e-04   Normal BFGS step
   49   -2013.8725785145      3.04e-04   Normal BFGS step
   50   -2013.8725786511      3.44e-04   Normal BFGS step
   51   -2013.8725788519      1.00e-04   Normal BFGS step
   52   -2013.8725788669      8.92e-05   Normal BFGS step
   53   -2013.8725788998      3.39e-05   Normal BFGS step
   54   -2013.8725789018      4.64e-05   Normal BFGS step
   55   -2013.8725789061      1.62e-05   Normal BFGS step
   56   -2013.8725789063      1.76e-05   Normal BFGS step
   57   -2013.8725789072      8.37e-06   Normal BFGS step
   58   -2013.8725789070      1.16e-05   Normal BFGS step
   59   -2013.8725789073      2.96e-06   Normal BFGS step
   60   -2013.8725789073      2.92e-06   Normal BFGS step
   61   -2013.8725789074      9.85e-07   Normal BFGS step
   62   -2013.8725789074      2.17e-06   Normal BFGS step
   63   -2013.8725789074      4.01e-07   Normal BFGS step
   64   -2013.8725789074      8.65e-07   Normal BFGS step
   65   -2013.8725789074      2.68e-07   Normal BFGS step
   66   -2013.8725789074      6.56e-07   Normal BFGS step
   67   -2013.8725789074      4.31e-07   Normal BFGS step
   68   -2013.8725789074      6.20e-07   Normal BFGS step
   69   -2013.8725789074      9.99e-08   Normal BFGS step
   70   -2013.8725789074      1.80e-07   Normal BFGS step
   71   -2013.8725789074      1.77e-08   Normal BFGS step
   72   -2013.8725789074      2.14e-08   Normal BFGS step
   73   -2013.8725789074      7.18e-09  Convergence criterion met
 ---------------------------------------
 SCF time:   CPU 560.76s  wall 70.00s 
<S^2> =          4.540648525
 SCF   energy in the final basis set =    -2013.8725789074
 Total energy in the final basis set =    -2013.8725789074
 
 --------------------------------------------------------------
 
                    Orbital Energies (a.u.)
 --------------------------------------------------------------
 
 Alpha MOs
 -- Occupied --
******* -29.691 -26.245 -26.244 -26.240 -18.930 -18.881 -10.127
-10.124 -10.083 -10.068 -10.062 -10.061 -10.048 -10.040 -10.029
-10.027 -10.018 -10.009  -9.974  -9.973  -9.971  -9.969  -3.882
 -2.723  -2.720  -2.711  -1.239  -1.068  -0.999  -0.991  -0.933
 -0.930  -0.906  -0.867  -0.853  -0.846  -0.813  -0.804  -0.803
 -0.761  -0.735  -0.722  -0.710  -0.690  -0.682  -0.643  -0.637
 -0.630  -0.617  -0.609  -0.602  -0.593  -0.589  -0.585  -0.574
 -0.572  -0.566  -0.561  -0.559  -0.558  -0.553  -0.552  -0.550
 -0.549  -0.548  -0.545  -0.528  -0.528  -0.519  -0.505  -0.502
 -0.497  -0.496  -0.491  -0.462  -0.457  -0.457  -0.450  -0.430
 -0.421
 -- Virtual --
 -0.419  -0.401  -0.399  -0.280  -0.276  -0.262  -0.223  -0.146
 -0.129  -0.113  -0.089   0.004   0.005   0.024   0.057   0.067
  0.072   0.081   0.085   0.091   0.093   0.103   0.119   0.121
  0.130   0.133   0.137   0.141   0.147   0.150   0.162   0.164
  0.176   0.178   0.182   0.195   0.202   0.205   0.209   0.220
  0.235   0.243   0.248   0.263   0.267   0.273   0.275   0.293
  0.350   0.384   0.400
 
 Beta MOs
 -- Occupied --
******* -29.651 -26.212 -26.211 -26.209 -18.934 -18.895 -10.128
-10.124 -10.085 -10.070 -10.064 -10.063 -10.049 -10.043 -10.029
-10.027 -10.018 -10.009  -9.974  -9.974  -9.972  -9.969  -3.668
 -2.508  -2.505  -2.501  -1.249  -1.121  -1.006  -0.997  -0.939
 -0.933  -0.908  -0.870  -0.859  -0.850  -0.817  -0.805  -0.804
 -0.766  -0.738  -0.725  -0.713  -0.693  -0.688  -0.647  -0.640
 -0.633  -0.623  -0.612  -0.605  -0.599  -0.592  -0.587  -0.575
 -0.575  -0.569  -0.563  -0.561  -0.554  -0.553  -0.547  -0.531
 -0.528  -0.521  -0.514  -0.507  -0.498  -0.495  -0.492  -0.484
 -0.463  -0.458  -0.456  -0.452  -0.443  -0.436  -0.423
 -- Virtual --
 -0.343  -0.337  -0.337  -0.334  -0.331  -0.289  -0.282  -0.279
 -0.243  -0.160  -0.134  -0.123  -0.096  -0.001   0.003   0.021
  0.053   0.064   0.069   0.079   0.082   0.088   0.089   0.101
  0.115   0.118   0.125   0.131   0.134   0.138   0.144   0.147
  0.159   0.162   0.174   0.177   0.180   0.193   0.201   0.203
  0.208   0.219   0.234   0.242   0.247   0.260   0.266   0.269
  0.274   0.290   0.346   0.378   0.394
 --------------------------------------------------------------
 
          Ground-State Mulliken Net Atomic Charges

     Atom                 Charge (a.u.)    Spin (a.u.)
  --------------------------------------------------------
      1 Fe                    0.660905       4.371514
      2 O                    -0.079020      -0.976655
      3 H                     0.084383      -0.000640
      4 H                     0.122969      -0.011564
      5 H                     0.123895      -0.025212
      6 O                    -0.089385      -0.206221
      7 H                     0.078894      -0.000049
      8 H                     0.084811      -0.000765
      9 C                    -0.214840      -0.018197
     10 C                    -0.236927       0.006072
     11 H                     0.132955       0.012203
     12 C                     0.070817      -0.205670
     13 H                     0.113816       0.005158
     14 H                     0.113095       0.000126
     15 H                     0.077811       0.000235
     16 C                    -0.137920       0.000405
     17 C                     0.035386      -0.179458
     18 C                     0.006418      -0.010412
     19 C                    -0.131546      -0.002279
     20 H                     0.138502      -0.005552
     21 C                    -0.057021      -0.296262
     22 C                     0.027031      -0.009080
     23 H                     0.133118      -0.016247
     24 C                    -0.033386      -0.125543
     25 H                     0.120308      -0.008614
     26 C                     0.011433      -0.062888
     27 C                    -0.134084      -0.003459
     28 H                     0.104642      -0.000425
     29 H                     0.113122      -0.000758
     30 H                     0.156252       0.012470
     31 C                    -0.033479      -0.024213
     32 C                     0.062620      -0.163824
     33 H                     0.138964      -0.001947
     34 C                    -0.214277      -0.027649
     35 H                     0.088743      -0.000780
     36 H                     0.073290       0.000698
     37 H                     0.113388      -0.003287
     38 H                     0.133603       0.001103
     39 H                     0.092823      -0.000067
     40 C                    -0.227491       0.000901
     41 H                     0.127966      -0.009339
     42 H                     0.122026      -0.002528
     43 H                     0.125389      -0.011300
  --------------------------------------------------------
  Sum of atomic charges =     2.000000
  Sum of spin   charges =     2.000000

 -----------------------------------------------------------------
                    Cartesian Multipole Moments
 -----------------------------------------------------------------
    Charge (ESU x 10^10)
                 9.6064
    Dipole Moment (Debye)
         X      -6.2817      Y       3.8871      Z      -1.1969
       Tot       7.4835
    Quadrupole Moments (Debye-Ang)
        XX     -32.1892     XY       9.3006     YY     -60.3648
        XZ      -6.8242     YZ       2.5759     ZZ     -99.4864
    Octopole Moments (Debye-Ang^2)
       XXX    -238.4373    XXY     -66.7543    XYY     -27.7997
       YYY     174.5834    XXZ      32.9715    XYZ     -17.5540
       YYZ       9.8379    XZZ      -2.5563    YZZ       8.8300
       ZZZ      -6.2599
    Hexadecapole Moments (Debye-Ang^3)
      XXXX   -2907.2594   XXXY     315.9075   XXYY   -1084.5874
      XYYY     -29.5504   YYYY   -1999.5053   XXXZ    -314.4625
      XXYZ     -15.4634   XYYZ      34.7118   YYYZ      76.8752
      XXZZ    -873.9774   XYZZ       5.8651   YYZZ    -565.6206
      XZZZ      -6.2179   YZZZ      23.2350   ZZZZ    -961.4165
 -----------------------------------------------------------------
 Calculating analytic gradient of the SCF energy
 Gradient of SCF Energy
            1           2           3           4           5           6
    1   0.0042132  -0.0081577  -0.0017211  -0.0043352  -0.0012435   0.0129651
    2   0.0782408  -0.0980002  -0.0038905  -0.0035388  -0.0075875  -0.0300517
    3  -0.0455841   0.0370152  -0.0013988   0.0009230  -0.0039296  -0.0144411
            7           8           9          10          11          12
    1   0.0096272  -0.0020155   0.0093077   0.0055176  -0.0013867  -0.0227861
    2   0.0001700  -0.0023079  -0.0083840  -0.0156709  -0.0111859  -0.0222936
    3  -0.0004297  -0.0025759  -0.0249825   0.0097673  -0.0073981   0.0294602
           13          14          15          16          17          18
    1  -0.0020595  -0.0024775   0.0054242  -0.0121469   0.0133034  -0.0113966
    2  -0.0107948   0.0017683   0.0018662  -0.0034490   0.0268479  -0.0006875
    3  -0.0076551  -0.0009636  -0.0004977   0.0127656  -0.0303047  -0.0290841
           19          20          21          22          23          24
    1  -0.0173276   0.0022587   0.0192157  -0.0067872   0.0001510   0.0299506
    2  -0.0043060   0.0078957  -0.0191652  -0.0047031   0.0029609  -0.0169057
    3  -0.0193045  -0.0155021  -0.0236919  -0.0002367   0.0056288  -0.0321157
           25          26          27          28          29          30
    1  -0.0008578   0.0118081  -0.0109501  -0.0016722  -0.0063443   0.0132644
    2  -0.0016567   0.0093361   0.0205928   0.0039875  -0.0022156   0.0070590
    3   0.0072099   0.0537504   0.0082221  -0.0004790  -0.0004706  -0.0023971
           31          32          33          34          35          36
    1  -0.0225053  -0.0164423  -0.0047944   0.0142022   0.0011352   0.0036776
    2   0.0202486   0.0197075   0.0054902   0.0252537   0.0030473   0.0007930
    3   0.0287133   0.0218381   0.0142460   0.0092912   0.0030107  -0.0007714
           37          38          39          40          41          42
    1  -0.0026951   0.0024266  -0.0022328   0.0034741  -0.0013021   0.0067206
    2   0.0000434   0.0099597   0.0017347   0.0175638  -0.0026705   0.0020397
    3  -0.0031004   0.0058043   0.0035947   0.0146748   0.0060163  -0.0018831
           43
    1  -0.0050060
    2   0.0028579
    3  -0.0027346
 Max gradient component =       9.800E-02
 RMS gradient           =       1.782E-02
 Gradient time:  CPU 24.27 s  wall 3.16 s
 Geometry Optimization Parameters
   NAtoms,    NIC,     NZ,  NCons,   NDum,   NFix, NCnnct, MaxDiis
       43     329       0       0       0       0       0       0


** GEOMETRY OPTIMIZATION IN DELOCALIZED INTERNAL COORDINATES **
   Searching for a Minimum

   Optimization Cycle:   1

                       Coordinates (Angstroms)
     ATOM                X               Y               Z
      1  Fe       -0.2651435580    3.6600742574    0.2214037576
      2  O        -0.3385819123    2.0261512839    1.0759951962
      3  H         1.7735863384   -0.0134628191    2.6482247567
      4  H         2.1675416354    2.0464969954   -1.9712872389
      5  H         4.0938193946    0.8262953875   -0.7199835785
      6  O        -0.9436481768    0.7375987245   -0.3092114045
      7  H         0.4977486352    1.4904030019   -1.6911883508
      8  H         3.8513598791   -0.4663607298    1.4887211405
      9  C         1.5782609273   -1.0814087159    2.4519676666
     10  C         1.5105432174    1.1571645385   -1.9401000636
     11  H        -5.3231609721    0.0977188364    1.6436207604
     12  C         2.0664345766    0.1573995859   -0.9594901888
     13  H        -3.1110309174    0.1568027770    0.4854059707
     14  H         2.1719177601   -1.6759028746    3.1684390688
     15  H         0.5175526450   -1.2819312252    2.6685233707
     16  C         3.5542772980   -0.0537805004   -1.1299086662
     17  C         1.3425532958   -0.5052579930   -0.0155543995
     18  C        -0.1394622723   -0.4554572963    0.1065663875
     19  C         3.5285068479   -1.3814321849    0.9552401171
     20  H        -0.5375004239   -0.8639919828    1.0382771741
     21  C        -5.5494211936   -0.8130632400    1.0800679841
     22  C         1.9869945043   -1.4603533332    1.0104224228
     23  H         1.5190721280    0.7413964160   -2.9660966406
     24  C        -3.3550949568   -0.7662134744   -0.0517006521
     25  H         3.7848094508   -0.0510187033   -2.2121616814
     26  C        -1.1085690568   -0.5416416769   -1.0331152578
     27  C         4.0650422705   -1.3278504719   -0.4684142968
     28  H         3.9431251229   -2.2372954408    1.5171761841
     29  H         5.1671464417   -1.3536082957   -0.4744168217
     30  H        -6.5263329103   -1.2693621313    1.2530965932
     31  C        -4.6580383127   -1.3419429516    0.2113454851
     32  C        -2.4084590156   -1.2411665095   -0.9054004058
     33  H        -0.6676979463   -0.5326166841   -2.0390210056
     34  C         1.5270301684   -2.9069051550    0.7265475091
     35  H         3.7273056481   -2.2109444962   -1.0414714826
     36  H         0.4265651383   -2.9912651223    0.7445231415
     37  H         1.9255418968   -3.5956279541    1.4925366007
     38  H        -4.9311767249   -2.2555910117   -0.3271674953
     39  H         1.8719799623   -3.2514088309   -0.2630907415
     40  C        -2.5313862318   -2.4691627086   -1.7607601222
     41  H        -2.3861677422   -2.2200303219   -2.8284449700
     42  H        -3.5078037156   -2.9612100753   -1.6637563265
     43  H        -1.7518999034   -3.2129829504   -1.5075075769
   Point Group: c1    Number of degrees of freedom:   123


   Energy is  -2013.872578907


 Attempting to Generate Delocalized Internal Coordinates

123 Hessian modes will be used to form the next step
  Hessian Eigenvalues:
     0.002000    0.003154    0.003327    0.004666    0.004997    0.008293
     0.008538    0.008970    0.010783    0.011378    0.011603    0.012015
     0.015143    0.015923    0.015984    0.020594    0.021824    0.022387
     0.022967    0.027654    0.028705    0.028705    0.030380    0.030484
     0.032195    0.043628    0.047571    0.047939    0.049722    0.051937
     0.052655    0.053520    0.054364    0.055351    0.056538    0.059967
     0.068828    0.069444    0.070257    0.073436    0.075334    0.078012
     0.078652    0.083857    0.084169    0.091252    0.096890    0.098526
     0.098605    0.105241    0.110277    0.121053    0.133855    0.159993
     0.160000    0.160000    0.160000    0.160000    0.160000    0.160000
     0.160000    0.160000    0.160000    0.160000    0.160000    0.160000
     0.160000    0.160000    0.160000    0.160699    0.188502    0.220000
     0.220002    0.228449    0.229628    0.245844    0.249575    0.249957
     0.249979    0.249998    0.250000    0.258817    0.270651    0.278386
     0.280332    0.280661    0.281470    0.288436    0.295097    0.305212
     0.316846    0.322127    0.325249    0.328838    0.329122    0.329413
     0.329694    0.330128    0.330335    0.330721    0.331765    0.331908
     0.332256    0.332610    0.333244    0.333304    0.333501    0.334157
     0.335714    0.336837    0.338692    0.339395    0.341904    0.342242
     0.342550    0.342781    0.343785    0.345325    0.345804    0.384345
     0.506872    0.528805    0.545162

 Minimum Search - Taking Simple RFO Step
 Searching for Lamda that Minimizes Along All modes
 Value Taken    Lamda =  -0.08694979
 Calculated Step too Large.  Step scaled by  0.611004
 Step Taken.  Stepsize is  0.300000

                             Maximum     Tolerance    Cnvgd?
         Gradient           0.064693      0.000300      NO
         Displacement       0.117756      0.001200      NO
         Energy change     *********      0.000001      NO


 New Cartesian Coordinates Obtained by Inverse Iteration

 Displacement from previous Coordinates is:  0.858249
 ----------------------------------------------------------------
             Standard Nuclear Orientation (Angstroms)
    I     Atom           X                Y                Z
 ----------------------------------------------------------------
    1      Fe     -0.3486924091     3.6789691018     0.3446120533
    2      O      -0.3689420197     2.1057003610     1.1165581047
    3      H       1.8183044101     0.0152500536     2.6925270333
    4      H       2.2066596703     2.0535136222    -2.0480409682
    5      H       4.1567341231     0.8175839603    -0.7671928548
    6      O      -0.9645166845     0.7788325896    -0.2889080056
    7      H       0.5236496196     1.5035327112    -1.7466069881
    8      H       3.9224429005    -0.4719619572     1.4948429357
    9      C       1.6114234478    -1.0551261499     2.5026998201
   10      C       1.5422886092     1.1654529833    -1.9948326965
   11      H      -5.4111386445     0.0627570864     1.6851372494
   12      C       2.1074481162     0.1646379775    -0.9898789343
   13      H      -3.1790775958     0.1490611903     0.5194851510
   14      H       2.2066866065    -1.6517867836     3.2194943986
   15      H       0.5459305339    -1.2480731565     2.7246303714
   16      C       3.6103729939    -0.0713482298    -1.1659773302
   17      C       1.3657081676    -0.4959626290    -0.0081338690
   18      C      -0.1406604566    -0.4292095939     0.1214933843
   19      C       3.5861165654    -1.3907803196     0.9701721585
   20      H      -0.5341553773    -0.8473806174     1.0657648506
   21      C      -5.6317389576    -0.8463971910     1.0975048842
   22      C       2.0189052370    -1.4577692558     1.0380135925
   23      H       1.5427358332     0.7271203390    -3.0167985995
   24      C      -3.4158043589    -0.7716246560    -0.0447973947
   25      H       3.8360857584    -0.0822138259    -2.2549379781
   26      C      -1.1311800111    -0.5130556528    -1.0489098003
   27      C       4.1200959548    -1.3577705655    -0.4775321240
   28      H       4.0005314218    -2.2481488903     1.5359762339
   29      H       5.2268547918    -1.3888290220    -0.4883912676
   30      H      -6.6157029529    -1.3174133894     1.2629357986
   31      C      -4.7226575540    -1.3670878173     0.2014694227
   32      C      -2.4470166526    -1.2350865843    -0.9291168550
   33      H      -0.6898677297    -0.4992627944    -2.0669384335
   34      C       1.5313442942    -2.9266131377     0.7626691107
   35      H       3.7719622323    -2.2469851482    -1.0413473367
   36      H       0.4275984548    -3.0029585558     0.7902577632
   37      H       1.9339034540    -3.6063183422     1.5380540728
   38      H      -4.9909910849    -2.2786540259    -0.3605423495
   39      H       1.8695571617    -3.2868105331    -0.2275323085
   40      C      -2.5708125462    -2.4629532194    -1.8196147253
   41      H      -2.4291449282    -2.1891840811    -2.8870247501
   42      H      -3.5508036570    -2.9601565286    -1.7241410140
   43      H      -1.7822974976    -3.2082353793    -1.5782498863
 ----------------------------------------------------------------
 Molecular Point Group                 C1    NOp =  1
 Largest Abelian Subgroup              C1    NOp =  1
 Nuclear Repulsion Energy =  1743.1588773340 hartrees
 There are       81 alpha and       79 beta electrons
 Applying Cartesian multipole field
    Component          Value
    ---------          -----
     (2,0,0)        1.00000E-12
     (0,2,0)        2.00000E-11
     (0,0,2)       -3.00000E-11
 Nucleus-field energy     =     0.0000000264 hartrees
 Requested basis set is STO-3G
 There are 65 shells and 132 basis functions
 A cutoff of  1.0D-12 yielded   1659 shell pairs
 There are      7394 function pairs (      7482 Cartesian)
 Smallest overlap matrix eigenvalue = 2.01E-01
 Guess MOs from SCF MO coefficient file

 -----------------------------------------------------------------------
  General SCF calculation program by
  Eric Jon Sundstrom, Paul Horn, Yuezhi Mao, Dmitri Zuev, Alec White,
  David Stuck, Shaama M.S., Shane Yost, Joonho Lee, David Small,
  Daniel Levine, Susi Lehtola, Hugh Burton, Evgeny Epifanovsky
 -----------------------------------------------------------------------
 Exchange:  B88      Correlation:  LYP
 Using SG-1 standard quadrature grid
 using 8 threads for integral computing
 -------------------------------------------------------
 OpenMP Integral computing Module                
 Release: version 1.0, May 2013, Q-Chem Inc. Pittsburgh 
 -------------------------------------------------------
 -------------------------------------------------------
 OpenMP BLAS3 based DFT computing Module                
 Release: version 1.0, May 2013, Q-Chem Inc. Pittsburgh 
 -------------------------------------------------------
 A unrestricted SCF calculation will be
 performed using DIIS, GDM
 SCF converges when RMS gradient is below 1.0e-08
 ---------------------------------------
  Cycle       Energy         DIIS error
 ---------------------------------------
    1   -2013.9088455050      5.64e-04  
    2   -2013.8048699097      2.56e-03  Done DIIS. Switching to GDM
 ---------------------------------------
  Cycle       Energy        RMS Gradient
 ---------------------------------------
    1   -2013.8048699097      6.25e-01   Descent step
    2   -2013.1632415783      1.74e+00  Line search: overstep
    3   -2013.8717845240      1.35e-01   Descent step
    4   -2013.7520730331      5.83e-01  Line search: overstep
    5   -2013.8904975528      1.29e-01   Normal BFGS step
    6   -2013.8917295065      1.69e-01   Normal BFGS step
    7   -2013.9032818629      1.44e-01   Normal BFGS step
    8   -2013.9092627826      7.91e-02   Normal BFGS step
    9   -2013.9109968080      1.39e-01   Normal BFGS step
   10   -2013.9136391054      3.44e-02   Normal BFGS step
   11   -2013.9143316553      5.04e-02   Normal BFGS step
   12   -2013.9152568991      3.03e-02   Normal BFGS step
   13   -2013.9153937914      1.56e-02   Normal BFGS step
   14   -2013.9156400746      9.36e-03   Normal BFGS step
   15   -2013.9157124399      4.47e-03   Normal BFGS step
   16   -2013.9157943705      7.31e-03   Normal BFGS step
   17   -2013.9159032499      5.96e-03   Normal BFGS step
   18   -2013.9160698521      9.90e-03   Normal BFGS step
   19   -2013.9160597040      3.78e-02  Line search: overstep
   20   -2013.9162383134      1.96e-02   Normal BFGS step
   21   -2013.9165610270      2.55e-02   Normal BFGS step
   22   -2013.9172798668      1.60e-02   Normal BFGS step
   23   -2013.9148332245      9.92e-02  Line search: overstep
   24   -2013.9178362728      1.87e-02   Normal BFGS step
   25   -2013.9179221210      1.82e-02   Normal BFGS step
   26   -2013.9185274142      6.94e-03   Normal BFGS step
   27   -2013.9182862527      9.75e-03  Line search: overstep
   28   -2013.9186711980      4.49e-03   Normal BFGS step
   29   -2013.9186747089      6.08e-03   Normal BFGS step
   30   -2013.9187213891      2.39e-03   Normal BFGS step
   31   -2013.9187106527      7.08e-03  Line search: overstep
   32   -2013.9187320513      1.75e-03   Normal BFGS step
   33   -2013.9187318027      1.37e-03  Line search: overstep
   34   -2013.9187354915      1.12e-03   Normal BFGS step
   35   -2013.9187352559      1.90e-03  Line search: overstep
   36   -2013.9187368124      7.72e-04   Normal BFGS step
   37   -2013.9187372251      7.54e-04   Normal BFGS step
   38   -2013.9187377017      3.30e-04   Normal BFGS step
   39   -2013.9187370324      6.50e-04  Line search: overstep
   40   -2013.9187378364      1.45e-04   Normal BFGS step
   41   -2013.9187378525      1.35e-04   Normal BFGS step
   42   -2013.9187378873      8.01e-05   Normal BFGS step
   43   -2013.9187378939      5.69e-05   Normal BFGS step
   44   -2013.9187378983      2.76e-05   Normal BFGS step
   45   -2013.9187378987      3.81e-05   Normal BFGS step
   46   -2013.9187379004      9.67e-06   Normal BFGS step
   47   -2013.9187379007      4.99e-06   Normal BFGS step
   48   -2013.9187379009      2.05e-06   Normal BFGS step
   49   -2013.9187379009      3.66e-06   Normal BFGS step
   50   -2013.9187379009      8.33e-07   Normal BFGS step
   51   -2013.9187379009      5.52e-07   Normal BFGS step
   52   -2013.9187379009      1.36e-07   Normal BFGS step
   53   -2013.9187379009      1.84e-07   Normal BFGS step
   54   -2013.9187379009      2.07e-07   Normal BFGS step
   55   -2013.9187379009      2.89e-07   Normal BFGS step
   56   -2013.9187379009      5.37e-08   Normal BFGS step
   57   -2013.9187379009      9.53e-08   Normal BFGS step
   58   -2013.9187379009      2.50e-08   Normal BFGS step
   59   -2013.9187379009      5.96e-08   Normal BFGS step
   60   -2013.9187379009      1.36e-08   Normal BFGS step
  /scratch/qcdevops/jenkins/workspace/build_qchem_linux_distrib/tags/qc511/qchem/libgscf/libgscf/opt/gdm.C::WARNING energy changes are now smaller than effective accuracy.
  /scratch/qcdevops/jenkins/workspace/build_qchem_linux_distrib/tags/qc511/qchem/libgscf/libgscf/opt/gdm.C::        calculation will continue, but THRESH should be increased
  /scratch/qcdevops/jenkins/workspace/build_qchem_linux_distrib/tags/qc511/qchem/libgscf/libgscf/opt/gdm.C::        or SCF_CONVERGENCE decreased. 
  /scratch/qcdevops/jenkins/workspace/build_qchem_linux_distrib/tags/qc511/qchem/libgscf/libgscf/opt/gdm.C::        effective_thresh = 3.54e-09
   61   -2013.9187379009      4.23e-08   Normal BFGS step
   62   -2013.9187379009      9.90e-09  Convergence criterion met
 ---------------------------------------
 SCF time:   CPU 472.92s  wall 59.00s 
<S^2> =          4.317304732
 SCF   energy in the final basis set =    -2013.9187379009
 Total energy in the final basis set =    -2013.9187379009
 
 --------------------------------------------------------------
 
                    Orbital Energies (a.u.)
 --------------------------------------------------------------
 
 Alpha MOs
 -- Occupied --
******* -29.671 -26.225 -26.224 -26.219 -18.933 -18.859 -10.123
-10.121 -10.084 -10.074 -10.069 -10.063 -10.051 -10.043 -10.031
-10.028 -10.020 -10.013  -9.978  -9.976  -9.975  -9.972  -3.858
 -2.700  -2.697  -2.687  -1.221  -1.068  -0.990  -0.982  -0.927
 -0.923  -0.899  -0.862  -0.848  -0.842  -0.808  -0.802  -0.802
 -0.757  -0.731  -0.720  -0.708  -0.684  -0.676  -0.638  -0.632
 -0.626  -0.613  -0.604  -0.597  -0.590  -0.584  -0.581  -0.571
 -0.569  -0.562  -0.558  -0.555  -0.553  -0.549  -0.547  -0.536
 -0.532  -0.528  -0.526  -0.526  -0.525  -0.519  -0.507  -0.499
 -0.496  -0.493  -0.476  -0.462  -0.459  -0.454  -0.445  -0.427
 -0.419
 -- Virtual --
 -0.418  -0.398  -0.379  -0.270  -0.257  -0.255  -0.231  -0.155
 -0.127  -0.125  -0.075  -0.013  -0.006   0.012   0.037   0.048
  0.056   0.067   0.069   0.076   0.077   0.085   0.106   0.113
  0.114   0.119   0.129   0.130   0.135   0.141   0.145   0.149
  0.166   0.169   0.172   0.183   0.191   0.193   0.198   0.209
  0.221   0.230   0.233   0.240   0.249   0.252   0.261   0.267
  0.323   0.341   0.365
 
 Beta MOs
 -- Occupied --
******* -29.632 -26.193 -26.192 -26.191 -18.937 -18.870 -10.123
-10.122 -10.087 -10.077 -10.072 -10.065 -10.051 -10.047 -10.031
-10.028 -10.020 -10.013  -9.978  -9.977  -9.975  -9.972  -3.653
 -2.497  -2.488  -2.483  -1.232  -1.107  -0.997  -0.989  -0.933
 -0.926  -0.902  -0.865  -0.853  -0.845  -0.812  -0.803  -0.803
 -0.762  -0.733  -0.723  -0.711  -0.688  -0.681  -0.642  -0.635
 -0.628  -0.617  -0.609  -0.601  -0.595  -0.588  -0.583  -0.572
 -0.571  -0.565  -0.560  -0.558  -0.553  -0.550  -0.539  -0.531
 -0.527  -0.521  -0.511  -0.508  -0.498  -0.496  -0.486  -0.475
 -0.463  -0.461  -0.456  -0.444  -0.440  -0.438  -0.421
 -- Virtual --
 -0.327  -0.319  -0.319  -0.318  -0.314  -0.291  -0.263  -0.253
 -0.251  -0.170  -0.136  -0.134  -0.071  -0.018  -0.009   0.009
  0.031   0.043   0.053   0.062   0.067   0.072   0.075   0.084
  0.101   0.109   0.110   0.117   0.126   0.128   0.134   0.138
  0.142   0.148   0.164   0.167   0.171   0.181   0.188   0.192
  0.197   0.208   0.220   0.228   0.231   0.237   0.244   0.251
  0.261   0.264   0.319   0.334   0.360
 --------------------------------------------------------------
 
          Ground-State Mulliken Net Atomic Charges

     Atom                 Charge (a.u.)    Spin (a.u.)
  --------------------------------------------------------
      1 Fe                    0.615606       4.273058
      2 O                    -0.127966      -0.774465
      3 H                     0.087335      -0.000585
      4 H                     0.126310      -0.012445
      5 H                     0.125890      -0.026962
      6 O                    -0.065817      -0.239249
      7 H                     0.082811      -0.000070
      8 H                     0.086510      -0.000703
      9 C                    -0.212813      -0.021593
     10 C                    -0.232000       0.008632
     11 H                     0.134152       0.013214
     12 C                     0.079455      -0.231785
     13 H                     0.115187       0.005319
     14 H                     0.113285       0.000366
     15 H                     0.078817       0.000252
     16 C                    -0.134542       0.001313
     17 C                     0.042821      -0.210862
     18 C                     0.007763      -0.010253
     19 C                    -0.130557      -0.001958
     20 H                     0.138349      -0.007426
     21 C                    -0.048731      -0.316888
     22 C                     0.029344      -0.009243
     23 H                     0.131541      -0.016711
     24 C                    -0.029735      -0.125920
     25 H                     0.120779      -0.008192
     26 C                     0.007027      -0.040245
     27 C                    -0.131023      -0.003658
     28 H                     0.105115      -0.000407
     29 H                     0.113184      -0.000626
     30 H                     0.155894       0.013475
     31 C                    -0.029888      -0.018371
     32 C                     0.066579      -0.181241
     33 H                     0.136875      -0.002336
     34 C                    -0.212321      -0.031122
     35 H                     0.088839      -0.000799
     36 H                     0.074804       0.000945
     37 H                     0.114162      -0.003840
     38 H                     0.133495       0.000923
     39 H                     0.093575      -0.000123
     40 C                    -0.222496       0.003188
     41 H                     0.127364      -0.009452
     42 H                     0.120918      -0.002193
     43 H                     0.124105      -0.010960
  --------------------------------------------------------
  Sum of atomic charges =     2.000000
  Sum of spin   charges =     2.000000

 -----------------------------------------------------------------
                    Cartesian Multipole Moments
 -----------------------------------------------------------------
    Charge (ESU x 10^10)
                 9.6064
    Dipole Moment (Debye)
         X      -6.4193      Y       2.4485      Z      -1.1474
       Tot       6.9655
    Quadrupole Moments (Debye-Ang)
        XX     -25.6560     XY       9.5978     YY     -63.3023
        XZ      -7.6055     YZ       2.8746     ZZ     -98.1208
    Octopole Moments (Debye-Ang^2)
       XXX    -250.7414    XXY     -75.4055    XYY     -28.0909
       YYY     158.4763    XXZ      33.2696    XYZ     -19.4948
       YYZ      10.1350    XZZ      -0.8888    YZZ       6.3760
       ZZZ     -12.4630
    Hexadecapole Moments (Debye-Ang^3)
      XXXX   -2845.4478   XXXY     360.8087   XXYY   -1101.1738
      XYYY     -21.7291   YYYY   -2061.8710   XXXZ    -344.6972
      XXYZ     -25.6240   XYYZ      33.2764   YYYZ      64.5738
      XXZZ    -890.0401   XYZZ      12.5228   YYZZ    -578.6057
      XZZZ      -4.5535   YZZZ      -0.6093   ZZZZ   -1002.5330
 -----------------------------------------------------------------
 Calculating analytic gradient of the SCF energy
 Gradient of SCF Energy
            1           2           3           4           5           6
    1   0.0013384  -0.0074936  -0.0013510  -0.0020534   0.0006451   0.0089108
    2   0.1052573  -0.1265169  -0.0016539  -0.0013245  -0.0040390  -0.0042387
    3  -0.0575396   0.0477076   0.0002022  -0.0002111  -0.0029164  -0.0068086
            7           8           9          10          11          12
    1   0.0039556  -0.0007118   0.0058728   0.0051730  -0.0008063  -0.0122910
    2   0.0004059  -0.0010862  -0.0050474  -0.0085557  -0.0047630  -0.0126627
    3  -0.0004079  -0.0010827  -0.0133923   0.0034519  -0.0030357   0.0169703
           13          14          15          16          17          18
    1  -0.0011523  -0.0018483   0.0025794  -0.0062112   0.0065163  -0.0020703
    2  -0.0042575   0.0013389   0.0013239   0.0020180   0.0161715  -0.0019665
    3  -0.0033565   0.0003637   0.0009926   0.0073899  -0.0176571  -0.0138456
           19          20          21          22          23          24
    1  -0.0080292   0.0000364   0.0076042  -0.0062707  -0.0006079   0.0149865
    2  -0.0043129   0.0041721  -0.0092764  -0.0044863   0.0024486  -0.0076017
    3  -0.0096548  -0.0069357  -0.0106486  -0.0003533   0.0021020  -0.0176366
           25          26          27          28          29          30
    1   0.0001367   0.0059408  -0.0039734  -0.0000834  -0.0029069   0.0054924
    2  -0.0008888   0.0058609   0.0117844   0.0029082  -0.0024869   0.0037330
    3   0.0032654   0.0336477   0.0038300   0.0006023  -0.0007088  -0.0005549
           31          32          33          34          35          36
    1  -0.0122787  -0.0095582  -0.0021583   0.0095219   0.0008944   0.0016505
    2   0.0093944   0.0090579   0.0042991   0.0132949   0.0011758  -0.0003677
    3   0.0152298   0.0088881   0.0055180   0.0060636   0.0013597  -0.0008946
           37          38          39          40          41          42
    1  -0.0021161   0.0015476  -0.0018501   0.0027483  -0.0005476   0.0032601
    2  -0.0009486   0.0042071  -0.0000513   0.0090634  -0.0019413   0.0001612
    3  -0.0020341   0.0021202   0.0015492   0.0095488   0.0023179  -0.0014049
           43
    1  -0.0024413
    2   0.0003975
    3  -0.0020411
 Max gradient component =       1.265E-01
 RMS gradient           =       1.735E-02
 Gradient time:  CPU 23.98 s  wall 3.12 s
 Geometry Optimization Parameters
   NAtoms,    NIC,     NZ,  NCons,   NDum,   NFix, NCnnct, MaxDiis
       43     329       0       0       0       0       0       0

 Cartesian Hessian Update
 Hessian Updated using BFGS Update


** GEOMETRY OPTIMIZATION IN DELOCALIZED INTERNAL COORDINATES **
   Searching for a Minimum

   Optimization Cycle:   2

                       Coordinates (Angstroms)
     ATOM                X               Y               Z
      1  Fe       -0.3486924091    3.6789691018    0.3446120533
      2  O        -0.3689420197    2.1057003610    1.1165581047
      3  H         1.8183044101    0.0152500536    2.6925270333
      4  H         2.2066596703    2.0535136222   -2.0480409682
      5  H         4.1567341231    0.8175839603   -0.7671928548
      6  O        -0.9645166845    0.7788325896   -0.2889080056
      7  H         0.5236496196    1.5035327112   -1.7466069881
      8  H         3.9224429005   -0.4719619572    1.4948429357
      9  C         1.6114234478   -1.0551261499    2.5026998201
     10  C         1.5422886092    1.1654529833   -1.9948326965
     11  H        -5.4111386445    0.0627570864    1.6851372494
     12  C         2.1074481162    0.1646379775   -0.9898789343
     13  H        -3.1790775958    0.1490611903    0.5194851510
     14  H         2.2066866065   -1.6517867836    3.2194943986
     15  H         0.5459305339   -1.2480731565    2.7246303714
     16  C         3.6103729939   -0.0713482298   -1.1659773302
     17  C         1.3657081676   -0.4959626290   -0.0081338690
     18  C        -0.1406604566   -0.4292095939    0.1214933843
     19  C         3.5861165654   -1.3907803196    0.9701721585
     20  H        -0.5341553773   -0.8473806174    1.0657648506
     21  C        -5.6317389576   -0.8463971910    1.0975048842
     22  C         2.0189052370   -1.4577692558    1.0380135925
     23  H         1.5427358332    0.7271203390   -3.0167985995
     24  C        -3.4158043589   -0.7716246560   -0.0447973947
     25  H         3.8360857584   -0.0822138259   -2.2549379781
     26  C        -1.1311800111   -0.5130556528   -1.0489098003
     27  C         4.1200959548   -1.3577705655   -0.4775321240
     28  H         4.0005314218   -2.2481488903    1.5359762339
     29  H         5.2268547918   -1.3888290220   -0.4883912676
     30  H        -6.6157029529   -1.3174133894    1.2629357986
     31  C        -4.7226575540   -1.3670878173    0.2014694227
     32  C        -2.4470166526   -1.2350865843   -0.9291168550
     33  H        -0.6898677297   -0.4992627944   -2.0669384335
     34  C         1.5313442942   -2.9266131377    0.7626691107
     35  H         3.7719622323   -2.2469851482   -1.0413473367
     36  H         0.4275984548   -3.0029585558    0.7902577632
     37  H         1.9339034540   -3.6063183422    1.5380540728
     38  H        -4.9909910849   -2.2786540259   -0.3605423495
     39  H         1.8695571617   -3.2868105331   -0.2275323085
     40  C        -2.5708125462   -2.4629532194   -1.8196147253
     41  H        -2.4291449282   -2.1891840811   -2.8870247501
     42  H        -3.5508036570   -2.9601565286   -1.7241410140
     43  H        -1.7822974976   -3.2082353793   -1.5782498863
   Point Group: c1    Number of degrees of freedom:   123


   Energy is  -2013.918737901

 Hessian Updated using BFGS Update

111 Hessian modes will be used to form the next step
  Hessian Eigenvalues:
     0.002006    0.003154    0.003327    0.004658    0.004997    0.008294
     0.008538    0.008970    0.010827    0.011378    0.011563    0.012029
     0.015138    0.015944    0.015983    0.020594    0.021822    0.022387
     0.022964    0.027651    0.028704    0.028706    0.030334    0.030709
     0.032033    0.043473    0.047278    0.047931    0.048709    0.049787
     0.052488    0.052756    0.053521    0.054617    0.055357    0.056543
     0.060170    0.068832    0.069562    0.070261    0.073437    0.075351
     0.078037    0.078657    0.083934    0.084182    0.096684    0.097619
     0.098604    0.101742    0.105348    0.110306    0.121067    0.133877
     0.159994    0.160000    0.160266    0.160418    0.160706    0.188512
     0.220004    0.220056    0.229742    0.246208    0.249427    0.249699
     0.249959    0.249980    0.250003    0.258761    0.271795    0.278372
     0.280538    0.281012    0.286021    0.288475    0.299261    0.309238
     0.318327    0.323547    0.325395    0.328849    0.329152    0.329444
     0.329741    0.330150    0.330373    0.330735    0.331771    0.331911
     0.332258    0.332613    0.333244    0.333303    0.334146    0.335553
     0.335823    0.338445    0.339347    0.340914    0.342053    0.342392
     0.342629    0.343032    0.345117    0.345696    0.382171    0.430082
     0.517569    0.539450    0.911651

 Minimum Search - Taking Simple RFO Step
 Searching for Lamda that Minimizes Along All modes
 Value Taken    Lamda =  -0.11885232
 Calculated Step too Large.  Step scaled by  0.359597
 Step Taken.  Stepsize is  0.300000

                             Maximum     Tolerance    Cnvgd?
         Gradient           0.077826      0.000300      NO
         Displacement       0.160410      0.001200      NO
         Energy change     -0.046159      0.000001      NO


 New Cartesian Coordinates Obtained by Inverse Iteration

 Displacement from previous Coordinates is:  0.503246
 ----------------------------------------------------------------
             Standard Nuclear Orientation (Angstroms)
    I     Atom           X                Y                Z
 ----------------------------------------------------------------
    1      Fe     -0.3662939501     3.6384297789     0.4511517114
    2      O      -0.3809124740     2.1685205405     1.1309776857
    3      H       1.8437138753     0.0305354873     2.7172217592
    4      H       2.2115787168     2.0636426039    -2.0832658350
    5      H       4.1872929474     0.8200627700    -0.7933614076
    6      O      -0.9712048451     0.7975738325    -0.2869347101
    7      H       0.5251146409     1.5092628156    -1.7634334580
    8      H       3.9621925310    -0.4685441838     1.4982014305
    9      C       1.6337843351    -1.0424491612     2.5337082521
   10      C       1.5468780262     1.1733927531    -2.0193566712
   11      H      -5.4582885122     0.0622713975     1.6956306189
   12      C       2.1283921352     0.1706876632    -1.0078192168
   13      H      -3.2156817176     0.1504742728     0.5284763064
   14      H       2.2340388023    -1.6393180211     3.2485445480
   15      H       0.5656464081    -1.2360543860     2.7559128280
   16      C       3.6403644635    -0.0758203127    -1.1875940314
   17      C       1.3789995976    -0.4957748237    -0.0007934334
   18      C      -0.1420464635    -0.4212777541     0.1284381468
   19      C       3.6222469537    -1.3913348565     0.9790600390
   20      H      -0.5365267888    -0.8406405355     1.0811528410
   21      C      -5.6796195290    -0.8483751604     1.0989682798
   22      C       2.0410989736    -1.4573541741     1.0551967621
   23      H       1.5412272886     0.7234463209    -3.0397192157
   24      C      -3.4514150209    -0.7709511008    -0.0467576029
   25      H       3.8623528806    -0.0928517773    -2.2807935803
   26      C      -1.1427683834    -0.5081448351    -1.0654089032
   27      C       4.1535217689    -1.3686643998    -0.4838044864
   28      H       4.0394070459    -2.2488443389     1.5467130960
   29      H       5.2633464183    -1.3983967547    -0.4973418191
   30      H      -6.6699296584    -1.3239721970     1.2605323730
   31      C      -4.7604558561    -1.3737010702     0.1888449850
   32      C      -2.4698115840    -1.2378322865    -0.9480786264
   33      H      -0.7000900013    -0.4974578296    -2.0900265996
   34      C       1.5425487064    -2.9413899838     0.7853641203
   35      H       3.8012527026    -2.2621938352    -1.0423429431
   36      H       0.4370220842    -3.0153982241     0.8193986871
   37      H       1.9524099545    -3.6117317170     1.5674780156
   38      H      -5.0298616484    -2.2859192164    -0.3820725683
   39      H       1.8789912348    -3.3067096605    -0.2059023464
   40      C      -2.6014904496    -2.4705256632    -1.8522674301
   41      H      -2.4610142843    -2.1882896181    -2.9208070756
   42      H      -3.5870711678    -2.9633122691    -1.7527315607
   43      H      -1.8108009168    -3.2178161468    -1.6115070449
 ----------------------------------------------------------------
 Molecular Point Group                 C1    NOp =  1
 Largest Abelian Subgroup              C1    NOp =  1
 Nuclear Repulsion Energy =  1735.7894076771 hartrees
 There are       81 alpha and       79 beta electrons
 Applying Cartesian multipole field
    Component          Value
    ---------          -----
     (2,0,0)        1.00000E-12
     (0,2,0)        2.00000E-11
     (0,0,2)       -3.00000E-11
 Nucleus-field energy     =     0.0000000253 hartrees
 Requested basis set is STO-3G
 There are 65 shells and 132 basis functions
 A cutoff of  1.0D-12 yielded   1651 shell pairs
 There are      7383 function pairs (      7471 Cartesian)
 Smallest overlap matrix eigenvalue = 2.08E-01
 Guess MOs from SCF MO coefficient file

 -----------------------------------------------------------------------
  General SCF calculation program by
  Eric Jon Sundstrom, Paul Horn, Yuezhi Mao, Dmitri Zuev, Alec White,
  David Stuck, Shaama M.S., Shane Yost, Joonho Lee, David Small,
  Daniel Levine, Susi Lehtola, Hugh Burton, Evgeny Epifanovsky
 -----------------------------------------------------------------------
 Exchange:  B88      Correlation:  LYP
 Using SG-1 standard quadrature grid
 using 8 threads for integral computing
 -------------------------------------------------------
 OpenMP Integral computing Module                
 Release: version 1.0, May 2013, Q-Chem Inc. Pittsburgh 
 -------------------------------------------------------
 -------------------------------------------------------
 OpenMP BLAS3 based DFT computing Module                
 Release: version 1.0, May 2013, Q-Chem Inc. Pittsburgh 
 -------------------------------------------------------
 A unrestricted SCF calculation will be
 performed using DIIS, GDM
 SCF converges when RMS gradient is below 1.0e-08
 ---------------------------------------
  Cycle       Energy         DIIS error
 ---------------------------------------
    1   -2013.9448618148      7.07e-04  
    2   -2013.8661059441      2.43e-03  Done DIIS. Switching to GDM
 ---------------------------------------
  Cycle       Energy        RMS Gradient
 ---------------------------------------
    1   -2013.8661059441      5.89e-01   Descent step
    2   -2013.3155643001      1.49e+00  Line search: overstep
    3   -2013.9232895139      1.33e-01   Descent step
    4   -2013.7970030470      7.05e-01  Line search: overstep
    5   -2013.9400338889      1.08e-01   Normal BFGS step
    6   -2013.9409786816      1.56e-01   Normal BFGS step
    7   -2013.9522492407      7.60e-02   Normal BFGS step
    8   -2013.9548227963      5.82e-02   Normal BFGS step
    9   -2013.9561241451      7.57e-02   Normal BFGS step
   10   -2013.9580858361      2.04e-02   Normal BFGS step
   11   -2013.9578165178      2.77e-02  Line search: overstep
   12   -2013.9586304133      1.79e-02   Normal BFGS step
   13   -2013.9589235670      1.18e-02   Normal BFGS step
   14   -2013.9591068417      1.02e-02   Normal BFGS step
   15   -2013.9592858640      9.77e-03   Normal BFGS step
   16   -2013.9594586929      8.43e-03   Normal BFGS step
   17   -2013.9595486209      1.37e-02   Normal BFGS step
   18   -2013.9597131999      7.85e-03   Normal BFGS step
   19   -2013.9599910326      1.23e-02   Normal BFGS step
   20   -2013.9600956597      2.47e-02   Normal BFGS step
   21   -2013.9601281604      1.54e-02   Normal BFGS step
   22   -2013.9603834767      8.73e-03   Normal BFGS step
   23   -2013.9606129660      1.29e-02   Normal BFGS step
   24   -2013.9606874091      5.80e-03   Normal BFGS step
   25   -2013.9607321463      4.53e-03   Normal BFGS step
   26   -2013.9607373781      3.94e-03   Normal BFGS step
   27   -2013.9607581764      5.09e-03   Normal BFGS step
   28   -2013.9607619998      2.15e-03   Normal BFGS step
   29   -2013.9607736156      1.14e-03   Normal BFGS step
   30   -2013.9607733662      1.34e-03  Line search: overstep
   31   -2013.9607766203      1.00e-03   Normal BFGS step
   32   -2013.9607678984      2.89e-03  Line search: overstep
   33   -2013.9607777309      6.07e-04   Normal BFGS step
   34   -2013.9607780500      5.45e-04   Normal BFGS step
   35   -2013.9607784083      1.43e-04   Normal BFGS step
   36   -2013.9607784602      1.41e-04   Normal BFGS step
   37   -2013.9607784913      9.67e-05   Normal BFGS step
   38   -2013.9607785126      4.57e-05   Normal BFGS step
   39   -2013.9607785142      3.74e-05   Normal BFGS step
   40   -2013.9607785179      2.23e-05   Normal BFGS step
   41   -2013.9607785171      3.31e-05   Normal BFGS step
   42   -2013.9607785187      5.93e-06   Normal BFGS step
   43   -2013.9607785185      1.10e-05   Normal BFGS step
   44   -2013.9607785187      3.71e-06   Normal BFGS step
   45   -2013.9607785187      3.75e-06   Normal BFGS step
   46   -2013.9607785188      9.67e-07   Normal BFGS step
   47   -2013.9607785188      2.15e-06   Normal BFGS step
   48   -2013.9607785188      5.20e-07   Normal BFGS step
   49   -2013.9607785188      1.76e-06   Normal BFGS step
   50   -2013.9607785188      9.71e-08   Normal BFGS step
   51   -2013.9607785188      1.87e-07   Normal BFGS step
   52   -2013.9607785188      1.95e-07   Normal BFGS step
   53   -2013.9607785188      2.98e-07   Normal BFGS step
   54   -2013.9607785188      4.64e-08   Normal BFGS step
   55   -2013.9607785188      7.67e-08   Normal BFGS step
   56   -2013.9607785188      1.32e-08   Normal BFGS step
   57   -2013.9607785188      2.67e-08   Normal BFGS step
   58   -2013.9607785188      1.16e-08   Normal BFGS step
   59   -2013.9607785188      1.95e-08   Normal BFGS step
   60   -2013.9607785188      3.38e-09  Convergence criterion met
 ---------------------------------------
 SCF time:   CPU 446.31s  wall 55.00s 
<S^2> =          3.984191307
 SCF   energy in the final basis set =    -2013.9607785188
 Total energy in the final basis set =    -2013.9607785188
 
 --------------------------------------------------------------
 
                    Orbital Energies (a.u.)
 --------------------------------------------------------------
 
 Alpha MOs
 -- Occupied --
******* -29.658 -26.213 -26.211 -26.207 -18.938 -18.852 -10.125
-10.120 -10.089 -10.081 -10.076 -10.068 -10.056 -10.048 -10.036
-10.030 -10.024 -10.017  -9.982  -9.980  -9.979  -9.976  -3.838
 -2.680  -2.676  -2.666  -1.212  -1.085  -0.986  -0.980  -0.926
 -0.922  -0.897  -0.861  -0.847  -0.842  -0.808  -0.803  -0.803
 -0.757  -0.731  -0.721  -0.709  -0.683  -0.676  -0.638  -0.631
 -0.625  -0.613  -0.604  -0.597  -0.590  -0.585  -0.581  -0.572
 -0.571  -0.564  -0.559  -0.557  -0.556  -0.551  -0.549  -0.537
 -0.534  -0.529  -0.524  -0.518  -0.510  -0.505  -0.505  -0.500
 -0.499  -0.494  -0.467  -0.463  -0.457  -0.452  -0.439  -0.426
 -0.420
 -- Virtual --
 -0.418  -0.398  -0.353  -0.275  -0.242  -0.234  -0.230  -0.165
 -0.136  -0.135  -0.044  -0.025  -0.013   0.004   0.022   0.031
  0.045   0.051   0.059   0.064   0.067   0.072   0.094   0.102
  0.105   0.108   0.121   0.124   0.126   0.130   0.137   0.141
  0.159   0.160   0.166   0.174   0.181   0.185   0.191   0.201
  0.211   0.218   0.222   0.225   0.231   0.240   0.252   0.253
  0.305   0.311   0.342
 
 Beta MOs
 -- Occupied --
******* -29.622 -26.183 -26.182 -26.180 -18.942 -18.859 -10.125
-10.120 -10.091 -10.084 -10.079 -10.069 -10.056 -10.052 -10.036
-10.030 -10.024 -10.017  -9.983  -9.980  -9.979  -9.976  -3.648
 -2.502  -2.480  -2.473  -1.223  -1.107  -0.994  -0.987  -0.932
 -0.925  -0.900  -0.864  -0.853  -0.845  -0.812  -0.805  -0.804
 -0.762  -0.733  -0.724  -0.712  -0.686  -0.680  -0.641  -0.634
 -0.628  -0.616  -0.609  -0.600  -0.595  -0.588  -0.583  -0.573
 -0.572  -0.565  -0.561  -0.558  -0.555  -0.551  -0.540  -0.534
 -0.530  -0.523  -0.512  -0.511  -0.501  -0.499  -0.495  -0.477
 -0.467  -0.465  -0.459  -0.447  -0.441  -0.430  -0.421
 -- Virtual --
 -0.311  -0.310  -0.308  -0.308  -0.304  -0.299  -0.265  -0.228
 -0.222  -0.179  -0.147  -0.143  -0.039  -0.021  -0.016  -0.001
  0.015   0.027   0.042   0.046   0.057   0.060   0.065   0.071
  0.089   0.096   0.103   0.106   0.118   0.121   0.124   0.127
  0.135   0.139   0.157   0.158   0.165   0.173   0.179   0.184
  0.190   0.200   0.210   0.216   0.220   0.223   0.227   0.238
  0.251   0.252   0.300   0.305   0.337
 --------------------------------------------------------------
 
          Ground-State Mulliken Net Atomic Charges

     Atom                 Charge (a.u.)    Spin (a.u.)
  --------------------------------------------------------
      1 Fe                    0.577280       4.079249
      2 O                    -0.182341      -0.486905
      3 H                     0.089881      -0.000571
      4 H                     0.129435      -0.013211
      5 H                     0.128160      -0.028421
      6 O                    -0.046631      -0.264752
      7 H                     0.087608      -0.000077
      8 H                     0.088024      -0.000709
      9 C                    -0.210946      -0.024226
     10 C                    -0.229308       0.009777
     11 H                     0.136381       0.014133
     12 C                     0.086638      -0.253964
     13 H                     0.117315       0.005401
     14 H                     0.113957       0.000441
     15 H                     0.079765       0.000273
     16 C                    -0.132582       0.001903
     17 C                     0.049195      -0.236174
     18 C                     0.009248      -0.010009
     19 C                    -0.129790      -0.001913
     20 H                     0.138865      -0.008865
     21 C                    -0.041554      -0.336043
     22 C                     0.030108      -0.009575
     23 H                     0.131130      -0.017227
     24 C                    -0.026907      -0.124216
     25 H                     0.121971      -0.008133
     26 C                     0.004137      -0.020635
     27 C                    -0.129100      -0.003826
     28 H                     0.105832      -0.000423
     29 H                     0.113867      -0.000622
     30 H                     0.156881       0.014387
     31 C                    -0.026525      -0.016993
     32 C                     0.070488      -0.199248
     33 H                     0.137465      -0.004226
     34 C                    -0.210513      -0.034263
     35 H                     0.089132      -0.000777
     36 H                     0.075963       0.001114
     37 H                     0.115198      -0.004158
     38 H                     0.134605       0.000898
     39 H                     0.094333      -0.000134
     40 C                    -0.219287       0.005659
     41 H                     0.128033      -0.010042
     42 H                     0.120512      -0.001650
     43 H                     0.124079      -0.011248
  --------------------------------------------------------
  Sum of atomic charges =     2.000000
  Sum of spin   charges =     2.000000

 -----------------------------------------------------------------
                    Cartesian Multipole Moments
 -----------------------------------------------------------------
    Charge (ESU x 10^10)
                 9.6064
    Dipole Moment (Debye)
         X      -6.5039      Y       0.7644      Z      -1.2140
       Tot       6.6603
    Quadrupole Moments (Debye-Ang)
        XX     -19.9500     XY      10.5396     YY     -68.0740
        XZ      -8.0268     YZ       2.8386     ZZ     -97.1007
    Octopole Moments (Debye-Ang^2)
       XXX    -265.4403    XXY     -81.4406    XYY     -26.2986
       YYY     135.3039    XXZ      33.2893    XYZ     -21.0601
       YYZ       8.7042    XZZ      -0.2448    YZZ       4.8286
       ZZZ     -17.8982
    Hexadecapole Moments (Debye-Ang^3)
      XXXX   -2755.1523   XXXY     385.0952   XXYY   -1105.4491
      XYYY     -11.4308   YYYY   -2133.5173   XXXZ    -368.7119
      XXYZ     -33.1929   XYYZ      32.7595   YYYZ      46.1111
      XXZZ    -897.4999   XYZZ      15.0385   YYZZ    -582.4833
      XZZZ      -6.1007   YZZZ     -21.9794   ZZZZ   -1027.9946
 -----------------------------------------------------------------
 Calculating analytic gradient of the SCF energy
 Gradient of SCF Energy
            1           2           3           4           5           6
    1   0.0012322  -0.0074693  -0.0010086  -0.0008509   0.0017730   0.0044497
    2   0.1193050  -0.1416635  -0.0002338  -0.0001121  -0.0018478   0.0122770
    3  -0.0605749   0.0486335   0.0007555  -0.0005430  -0.0021183   0.0017774
            7           8           9          10          11          12
    1   0.0007408  -0.0001030   0.0043831   0.0039168  -0.0004607  -0.0060742
    2   0.0009820  -0.0002226  -0.0030777  -0.0043718  -0.0011645  -0.0072200
    3  -0.0003253  -0.0002543  -0.0070038   0.0002596  -0.0004464   0.0089627
           13          14          15          16          17          18
    1  -0.0006405  -0.0011791   0.0006966  -0.0028775   0.0028566   0.0034228
    2  -0.0005977   0.0008548   0.0009016   0.0045076   0.0100750  -0.0030327
    3  -0.0007726   0.0010023   0.0014656   0.0045113  -0.0094560  -0.0054906
           19          20          21          22          23          24
    1  -0.0035512  -0.0012280   0.0015777  -0.0058799  -0.0010023   0.0063520
    2  -0.0041631   0.0019384  -0.0037494  -0.0043222   0.0016081  -0.0025588
    3  -0.0040761  -0.0020153  -0.0033342  -0.0003766   0.0002039  -0.0086108
           25          26          27          28          29          30
    1   0.0005320   0.0035237  -0.0003302   0.0007367  -0.0007616   0.0010999
    2  -0.0006155   0.0021191   0.0067170   0.0020005  -0.0025618   0.0015956
    3   0.0009378   0.0189149   0.0012261   0.0013071  -0.0007265   0.0003285
           31          32          33          34          35          36
    1  -0.0061421  -0.0050223  -0.0008159   0.0067125   0.0005430   0.0003415
    2   0.0033719   0.0044326   0.0029839   0.0067332   0.0000402  -0.0007510
    3   0.0070186   0.0015023   0.0006145   0.0043133   0.0004040  -0.0009169
           37          38          39          40          41          42
    1  -0.0015073   0.0009793  -0.0014622   0.0026914  -0.0001884   0.0009333
    2  -0.0013622   0.0008868  -0.0007238   0.0038640  -0.0012762  -0.0007707
    3  -0.0010499  -0.0000418   0.0002039   0.0058456   0.0002379  -0.0008766
           43
    1  -0.0009394
    2  -0.0007954
    3  -0.0014162
 Max gradient component =       1.417E-01
 RMS gradient           =       1.809E-02
 Gradient time:  CPU 23.60 s  wall 3.06 s
 Geometry Optimization Parameters
   NAtoms,    NIC,     NZ,  NCons,   NDum,   NFix, NCnnct, MaxDiis
       43     329       0       0       0       0       0       0

 Cartesian Hessian Update
 Hessian Updated using BFGS Update


** GEOMETRY OPTIMIZATION IN DELOCALIZED INTERNAL COORDINATES **
   Searching for a Minimum

   Optimization Cycle:   3

                       Coordinates (Angstroms)
     ATOM                X               Y               Z
      1  Fe       -0.3662939501    3.6384297789    0.4511517114
      2  O        -0.3809124740    2.1685205405    1.1309776857
      3  H         1.8437138753    0.0305354873    2.7172217592
      4  H         2.2115787168    2.0636426039   -2.0832658350
      5  H         4.1872929474    0.8200627700   -0.7933614076
      6  O        -0.9712048451    0.7975738325   -0.2869347101
      7  H         0.5251146409    1.5092628156   -1.7634334580
      8  H         3.9621925310   -0.4685441838    1.4982014305
      9  C         1.6337843351   -1.0424491612    2.5337082521
     10  C         1.5468780262    1.1733927531   -2.0193566712
     11  H        -5.4582885122    0.0622713975    1.6956306189
     12  C         2.1283921352    0.1706876632   -1.0078192168
     13  H        -3.2156817176    0.1504742728    0.5284763064
     14  H         2.2340388023   -1.6393180211    3.2485445480
     15  H         0.5656464081   -1.2360543860    2.7559128280
     16  C         3.6403644635   -0.0758203127   -1.1875940314
     17  C         1.3789995976   -0.4957748237   -0.0007934334
     18  C        -0.1420464635   -0.4212777541    0.1284381468
     19  C         3.6222469537   -1.3913348565    0.9790600390
     20  H        -0.5365267888   -0.8406405355    1.0811528410
     21  C        -5.6796195290   -0.8483751604    1.0989682798
     22  C         2.0410989736   -1.4573541741    1.0551967621
     23  H         1.5412272886    0.7234463209   -3.0397192157
     24  C        -3.4514150209   -0.7709511008   -0.0467576029
     25  H         3.8623528806   -0.0928517773   -2.2807935803
     26  C        -1.1427683834   -0.5081448351   -1.0654089032
     27  C         4.1535217689   -1.3686643998   -0.4838044864
     28  H         4.0394070459   -2.2488443389    1.5467130960
     29  H         5.2633464183   -1.3983967547   -0.4973418191
     30  H        -6.6699296584   -1.3239721970    1.2605323730
     31  C        -4.7604558561   -1.3737010702    0.1888449850
     32  C        -2.4698115840   -1.2378322865   -0.9480786264
     33  H        -0.7000900013   -0.4974578296   -2.0900265996
     34  C         1.5425487064   -2.9413899838    0.7853641203
     35  H         3.8012527026   -2.2621938352   -1.0423429431
     36  H         0.4370220842   -3.0153982241    0.8193986871
     37  H         1.9524099545   -3.6117317170    1.5674780156
     38  H        -5.0298616484   -2.2859192164   -0.3820725683
     39  H         1.8789912348   -3.3067096605   -0.2059023464
     40  C        -2.6014904496   -2.4705256632   -1.8522674301
     41  H        -2.4610142843   -2.1882896181   -2.9208070756
     42  H        -3.5870711678   -2.9633122691   -1.7527315607
     43  H        -1.8108009168   -3.2178161468   -1.6115070449
   Point Group: c1    Number of degrees of freedom:   123


   Energy is  -2013.960778519

 Hessian Updated using BFGS Update

112 Hessian modes will be used to form the next step
  Hessian Eigenvalues:
     0.002006    0.003154    0.003327    0.004660    0.004998    0.008288
     0.008538    0.008970    0.010666    0.011373    0.011511    0.012025
     0.015041    0.015923    0.015977    0.017312    0.020622    0.021825
     0.022388    0.023065    0.027661    0.028705    0.028707    0.030397
     0.030827    0.032266    0.043646    0.047756    0.047962    0.049729
     0.051987    0.052669    0.053521    0.054387    0.055351    0.056539
     0.059993    0.068830    0.069538    0.070261    0.073441    0.075344
     0.078025    0.078657    0.083919    0.084184    0.095352    0.096979
     0.098619    0.098950    0.105353    0.110349    0.121062    0.133871
     0.159995    0.160000    0.160044    0.160247    0.160517    0.160703
     0.188513    0.220006    0.220199    0.229766    0.246444    0.249655
     0.249959    0.249977    0.249998    0.253591    0.259403    0.271841
     0.278393    0.280546    0.281019    0.286005    0.288496    0.299208
     0.309112    0.318278    0.323509    0.325399    0.328849    0.329154
     0.329444    0.329740    0.330153    0.330372    0.330735    0.331774
     0.331918    0.332260    0.332613    0.333244    0.333303    0.334147
     0.335672    0.336534    0.338455    0.339350    0.341084    0.342069
     0.342419    0.342658    0.343337    0.345147    0.345698    0.382791
     0.435874    0.517901    0.539700    1.738322

 Minimum Search - Taking Simple RFO Step
 Searching for Lamda that Minimizes Along All modes
 Value Taken    Lamda =  -0.12820321
 Calculated Step too Large.  Step scaled by  0.320312
 Step Taken.  Stepsize is  0.300000

                             Maximum     Tolerance    Cnvgd?
         Gradient           0.083134      0.000300      NO
         Displacement       0.169336      0.001200      NO
         Energy change     -0.042041      0.000001      NO


 New Cartesian Coordinates Obtained by Inverse Iteration

 Displacement from previous Coordinates is:  0.398138
 ----------------------------------------------------------------
[...]
  0.145   0.152   0.155   0.168   0.172   0.182   0.183   0.190
  0.198   0.203   0.209   0.213   0.213   0.227   0.240   0.245
  0.279   0.282   0.316
 
 Beta MOs
 -- Occupied --
******* -29.620 -26.183 -26.178 -26.173 -18.925 -18.886 -10.111
-10.108 -10.084 -10.073 -10.068 -10.066 -10.052 -10.048 -10.028
-10.021 -10.015 -10.011  -9.978  -9.976  -9.975  -9.973  -3.653
 -2.531  -2.477  -2.462  -1.194  -1.119  -0.974  -0.970  -0.917
 -0.907  -0.884  -0.848  -0.839  -0.825  -0.795  -0.793  -0.790
 -0.747  -0.720  -0.708  -0.699  -0.669  -0.658  -0.624  -0.615
 -0.613  -0.601  -0.594  -0.584  -0.579  -0.576  -0.575  -0.568
 -0.560  -0.556  -0.554  -0.549  -0.546  -0.546  -0.543  -0.535
 -0.532  -0.527  -0.519  -0.511  -0.504  -0.497  -0.490  -0.487
 -0.459  -0.458  -0.451  -0.437  -0.421  -0.411  -0.394
 -- Virtual --
 -0.299  -0.298  -0.296  -0.296  -0.286  -0.261  -0.255  -0.186
 -0.162  -0.155  -0.148  -0.133  -0.053  -0.015  -0.010  -0.007
  0.009   0.023   0.036   0.039   0.052   0.054   0.056   0.061
  0.070   0.084   0.093   0.103   0.106   0.115   0.116   0.127
  0.133   0.138   0.142   0.150   0.154   0.167   0.169   0.180
  0.182   0.189   0.196   0.202   0.205   0.210   0.212   0.224
  0.239   0.244   0.273   0.277   0.312
 --------------------------------------------------------------
 
          Ground-State Mulliken Net Atomic Charges

     Atom                 Charge (a.u.)    Spin (a.u.)
  --------------------------------------------------------
      1 Fe                    1.014359       3.305323
      2 O                    -0.023309      -0.296475
      3 H                     0.091205       0.000316
      4 H                     0.124952      -0.015483
      5 H                     0.121720      -0.022446
      6 O                    -0.203655      -0.080507
      7 H                     0.099235      -0.002305
      8 H                     0.089081       0.000045
      9 C                    -0.208960      -0.011941
     10 C                    -0.233849       0.010380
     11 H                     0.134436       0.014082
     12 C                     0.053693      -0.254162
     13 H                     0.112254       0.005156
     14 H                     0.110195       0.000721
     15 H                     0.074440       0.000531
     16 C                    -0.134436       0.009249
     17 C                    -0.015684      -0.200289
     18 C                    -0.001489       0.003046
     19 C                    -0.129358       0.000207
     20 H                     0.123861      -0.006869
     21 C                    -0.116464      -0.249987
     22 C                     0.021976       0.005536
     23 H                     0.122672      -0.006231
     24 C                    -0.054197      -0.082410
     25 H                     0.119533      -0.008785
     26 C                     0.005656      -0.014082
     27 C                    -0.125363       0.000055
     28 H                     0.102721      -0.000024
     29 H                     0.109879      -0.000147
     30 H                     0.153247       0.014290
     31 C                    -0.066316       0.025495
     32 C                    -0.021494      -0.121886
     33 H                     0.126152       0.001308
     34 C                    -0.207269      -0.020775
     35 H                     0.085117      -0.000330
     36 H                     0.070113       0.001081
     37 H                     0.108178      -0.002290
     38 H                     0.132749       0.001073
     39 H                     0.086974       0.000721
     40 C                    -0.203445       0.011333
     41 H                     0.120928      -0.007068
     42 H                     0.113895      -0.000307
     43 H                     0.116066      -0.005149
  --------------------------------------------------------
  Sum of atomic charges =     2.000000
  Sum of spin   charges =     2.000000

 -----------------------------------------------------------------
                    Cartesian Multipole Moments
 -----------------------------------------------------------------
    Charge (ESU x 10^10)
                 9.6064
    Dipole Moment (Debye)
         X      -7.2945      Y      19.6346      Z      -0.5204
       Tot      20.9522
    Quadrupole Moments (Debye-Ang)
        XX     -41.1050     XY     -21.4759     YY      44.1515
        XZ      -7.6680     YZ       1.5726     ZZ     -96.2641
    Octopole Moments (Debye-Ang^2)
       XXX    -104.6659    XXY     -69.0444    XYY    -190.4919
       YYY     748.7074    XXZ      32.3109    XYZ     -17.0802
       YYZ      12.8171    XZZ       2.0557    YZZ     -28.9770
       ZZZ      15.0196
    Hexadecapole Moments (Debye-Ang^3)
      XXXX   -3520.1526   XXXY     591.3080   XXYY   -1204.7209
      XYYY    -776.5900   YYYY    -358.9147   XXXZ    -299.8530
      XXYZ       0.4829   XYYZ      -0.3339   YYYZ     148.9983
      XXZZ    -868.3569   XYZZ     115.3730   YYZZ    -963.5839
      XZZZ     -21.1002   YZZZ      95.6852   ZZZZ   -1128.1496
 -----------------------------------------------------------------
 Calculating analytic gradient of the SCF energy
 Gradient of SCF Energy
            1           2           3           4           5           6
    1   0.0008998   0.0000790   0.0004824  -0.0002606   0.0008298  -0.0000156
    2  -0.0000736  -0.0027780   0.0017514   0.0002150   0.0005567   0.0016210
    3  -0.0001481   0.0000579  -0.0003710   0.0009655   0.0006975   0.0011515
            7           8           9          10          11          12
    1  -0.0004430   0.0001102   0.0001029  -0.0002803  -0.0002405  -0.0017892
    2  -0.0001117   0.0013367  -0.0000773   0.0018350  -0.0003939  -0.0001650
    3  -0.0006553   0.0000112  -0.0005591  -0.0009946   0.0002662   0.0006712
           13          14          15          16          17          18
    1   0.0003585   0.0003271  -0.0016864   0.0001627   0.0010535  -0.0024310
    2   0.0002301  -0.0007860   0.0003499  -0.0006813   0.0008707   0.0005120
    3   0.0006807   0.0000262   0.0002438  -0.0006943  -0.0011127  -0.0009307
           19          20          21          22          23          24
    1  -0.0001669   0.0005277   0.0012432  -0.0000355   0.0005556   0.0010748
    2   0.0000735   0.0001989   0.0009055  -0.0023565   0.0004993   0.0011508
    3   0.0002308   0.0016546  -0.0011166   0.0017894  -0.0003094  -0.0009470
           25          26          27          28          29          30
    1  -0.0003641  -0.0002886  -0.0000439  -0.0004548   0.0012280   0.0011354
    2  -0.0006597   0.0000473  -0.0007812  -0.0005506   0.0004434   0.0002228
    3  -0.0005280   0.0005195   0.0003649  -0.0007585   0.0000483  -0.0005605
           31          32          33          34          35          36
    1  -0.0005088  -0.0020841   0.0005623   0.0001986  -0.0003427  -0.0010064
    2  -0.0005524  -0.0022854  -0.0023098   0.0009575  -0.0006545   0.0004524
    3   0.0011118   0.0025215   0.0003699  -0.0002084  -0.0007103   0.0005129
           37          38          39          40          41          42
    1   0.0001521   0.0005614   0.0003462   0.0013599  -0.0005895  -0.0014679
    2  -0.0000397   0.0000730   0.0000023   0.0007528   0.0010573   0.0000715
    3   0.0003271  -0.0004661  -0.0006306  -0.0001850  -0.0016059   0.0001109
           43
    1   0.0011489
    2  -0.0009302
    3  -0.0008410
 Max gradient component =       2.778E-03
 RMS gradient           =       9.271E-04
 Gradient time:  CPU 21.85 s  wall 2.82 s
 Geometry Optimization Parameters
   NAtoms,    NIC,     NZ,  NCons,   NDum,   NFix, NCnnct, MaxDiis
       43     329       0       0       0       0       0       0

 Cartesian Hessian Update
 Hessian Updated using BFGS Update


** GEOMETRY OPTIMIZATION IN CARTESIAN COORDINATES **
   Searching for a Minimum

   Optimization Cycle:  31

                       Coordinates (Angstroms)
     ATOM                X               Y               Z
      1  Fe       -1.3099433402    5.6593624375   -0.0401961642
      2  O        -0.9501517942    4.3699903661    0.3721153020
      3  H         2.1832462049    0.1601385926    2.6905111787
      4  H         2.1775075233    2.2625646711   -1.2928254551
      5  H         4.3966939470    0.3798128640   -1.0009192277
      6  O        -0.8586876470    0.8326385953   -0.5932221302
      7  H         0.6169359648    1.4277856420   -1.7337579376
      8  H         4.1123300675   -0.7930244095    1.4333779647
      9  C         1.7416015217   -0.8661002173    2.6190633193
     10  C         1.7402476315    1.3571913673   -1.7871184317
     11  H        -4.9805710973   -0.8381403436    2.2570356644
     12  C         2.2278584898    0.1096519728   -0.9826927769
     13  H        -2.8625914590   -0.4371672687    0.8995554253
     14  H         2.2317908356   -1.5280109647    3.3756446620
     15  H         0.6440246035   -0.8158231948    2.8495342038
     16  C         3.6624904781   -0.4321468614   -1.2899803124
     17  C         1.4224458921   -0.4951607973    0.0682972926
     18  C        -0.1099765414   -0.2865066217    0.1517822607
     19  C         3.5915639606   -1.6713462769    0.9679310194
     20  H        -0.5718607352   -0.5557339920    1.1606588464
     21  C        -5.3477101641   -1.5019086168    1.4192193564
     22  C         2.0149081933   -1.4965525699    1.1664656099
     23  H         2.1160245846    1.3192132662   -2.8401444511
     24  C        -3.2340067134   -1.1267192194    0.0752589730
     25  H         3.7440052918   -0.5459297734   -2.4101109026
     26  C        -1.0230945431   -0.6145428696   -1.1398424479
     27  C         4.0059168298   -1.7789062651   -0.5462934322
     28  H         3.9047788388   -2.5968665758    1.5154814482
     29  H         5.1096631249   -1.9564983873   -0.6244445990
     30  H        -6.3575559874   -1.9918056563    1.5410671554
     31  C        -4.5756296099   -1.7445626735    0.2619258849
     32  C        -2.3840989981   -1.3459563889   -1.0634885490
     33  H        -0.4367283848   -0.8248649380   -2.0978748270
     34  C         1.2600215343   -2.9062063698    1.0459877820
     35  H         3.4794380501   -2.6367494519   -1.0483132132
     36  H         0.1511519069   -2.7859054334    1.2072851009
     37  H         1.6600142380   -3.5920771006    1.8372933649
     38  H        -4.9778884026   -2.4238688475   -0.5499898287
     39  H         1.4401215450   -3.3696488341    0.0369275720
     40  C        -2.7179835518   -2.2447281696   -2.3125154308
     41  H        -2.8754487367   -1.5759253006   -3.2159620674
     42  H        -3.6513927434   -2.8514954709   -2.1384927322
     43  H        -1.8513215680   -2.9402159715   -2.5353825501
   Point Group: c1    Number of degrees of freedom:   123


   Energy is  -2013.999734144


 Translations and Rotations Projected Out of Hessian

 77 Hessian modes will be used to form the next step
  Hessian Eigenvalues:
     0.000147    0.004951    0.007060    0.018767    0.029450    0.033001
     0.061900    0.128706    0.243742    0.369722    0.662227    0.728943
     0.896361    0.945886    0.996286    0.999243    0.999652    0.999881
     0.999910    0.999995    0.999999    1.000000    1.000000    1.000000
     1.000000    1.000000    1.000000    1.000000    1.000000    1.000000
     1.000000    1.000000    1.000000    1.000000    1.000000    1.000000
     1.000000    1.000000    1.000000    1.000000    1.000000    1.000000
     1.000000    1.000000    1.000000    1.000000    1.000000    1.000000
     1.000000    1.000000    1.000000    1.000000    1.000001    1.000096
     1.000153    1.000318    1.000367    1.000856    1.001549    1.003342
     1.003785    1.006311    1.007128    1.008164    1.011306    1.014081
     1.020408    1.024343    1.029591    1.043068    1.077529    1.143710
     1.174240    1.301856    1.469099    1.740339    6.707882

 Minimum Search - Taking Simple RFO Step
 Searching for Lamda that Minimizes Along All modes
 Value Taken    Lamda =  -0.00094595
 Calculated Step too Large.  Step scaled by  0.487285
 Step Taken.  Stepsize is  0.300000

                             Maximum     Tolerance    Cnvgd?
         Gradient           0.002778      0.000300      NO
         Displacement       0.143814      0.001200      NO
         Energy change      0.000132      0.000001      NO

 ----------------------------------------------------------------
             Standard Nuclear Orientation (Angstroms)
    I     Atom           X                Y                Z
 ----------------------------------------------------------------
    1      Fe     -1.3522010209     5.7348548840    -0.0467742749
    2      O      -0.9804020069     4.4460934414     0.3547924124
    3      H       2.1970744086     0.1595028909     2.6853837667
    4      H       2.1735602307     2.2612526054    -1.2734639403
    5      H       4.4081580261     0.3603664575    -1.0099795874
    6      O      -0.8520225756     0.8382492470    -0.6017579931
    7      H       0.6258410135     1.4285609586    -1.7444558839
    8      H       4.1135850321    -0.8069432510     1.4314051796
    9      C       1.7481940125    -0.8636137863     2.6199447306
   10      C       1.7502519840     1.3565982530    -1.7807351613
   11      H      -4.9676343042    -0.8643854350     2.2647303625
   12      C       2.2342718074     0.1070985520    -0.9817668716
   13      H      -2.8482809937    -0.4534333157     0.9019739218
   14      H       2.2326478179    -1.5244303300     3.3820779648
   15      H       0.6509826627    -0.8028091697     2.8492639827
   16      C       3.6633133302    -0.4444149663    -1.2920215028
   17      C       1.4253265570    -0.4942624370     0.0697274208
   18      C      -0.1057413851    -0.2769754609     0.1508397674
   19      C       3.5888305233    -1.6833402461     0.9675016928
   20      H      -0.5725743568    -0.5480704848     1.1566538293
   21      C      -5.3407055950    -1.5232608368     1.4253075162
   22      C       2.0146799123    -1.4981614002     1.1687796309
   23      H       2.1367146387     1.3354808340    -2.8303451957
   24      C      -3.2270261409    -1.1374924240     0.0759943795
   25      H       3.7400159213    -0.5625558925    -2.4120365983
   26      C      -1.0192159405    -0.6051513995    -1.1421790465
   27      C       3.9983310471    -1.7928140048    -0.5477414537
   28      H       3.8999275733    -2.6103605883     1.5148158518
   29      H       5.1005049697    -1.9813634370    -0.6277249266
   30      H      -6.3495588888    -2.0178033238     1.5482953718
   31      C      -4.5717233383    -1.7579670292     0.2638804053
   32      C      -2.3789185582    -1.3453275745    -1.0659437173
   33      H      -0.4317964514    -0.8219408552    -2.0984286180
   34      C       1.2503933545    -2.9037336097     1.0533110523
   35      H       3.4629007446    -2.6455150474    -1.0494298575
   36      H       0.1429453703    -2.7725407569     1.2167177787
   37      H       1.6450113535    -3.5946606512     1.8440532136
   38      H      -4.9796489245    -2.4324079440    -0.5506521370
   39      H       1.4240047561    -3.3689397919     0.0436724990
   40      C      -2.7166515369    -2.2393599183    -2.3173132828
   41      H      -2.8848467639    -1.5652594656    -3.2123810085
   42      H      -3.6447624219    -2.8566667519    -2.1443229721
   43      H      -1.8456166037    -2.9248425951    -2.5508167813
 ----------------------------------------------------------------
 Molecular Point Group                 C1    NOp =  1
 Largest Abelian Subgroup              C1    NOp =  1
 Nuclear Repulsion Energy =  1599.8994090255 hartrees
 There are       81 alpha and       79 beta electrons
 Applying Cartesian multipole field
    Component          Value
    ---------          -----
     (2,0,0)        1.00000E-12
     (0,2,0)        2.00000E-11
     (0,0,2)       -3.00000E-11
 Nucleus-field energy     =     0.0000000706 hartrees
 Requested basis set is STO-3G
 There are 65 shells and 132 basis functions
 A cutoff of  1.0D-12 yielded   1533 shell pairs
 There are      6555 function pairs (      6602 Cartesian)
 Smallest overlap matrix eigenvalue = 2.19E-01
 Guess MOs from SCF MO coefficient file

 -----------------------------------------------------------------------
  General SCF calculation program by
  Eric Jon Sundstrom, Paul Horn, Yuezhi Mao, Dmitri Zuev, Alec White,
  David Stuck, Shaama M.S., Shane Yost, Joonho Lee, David Small,
  Daniel Levine, Susi Lehtola, Hugh Burton, Evgeny Epifanovsky
 -----------------------------------------------------------------------
 Exchange:  B88      Correlation:  LYP
 Using SG-1 standard quadrature grid
 using 8 threads for integral computing
 -------------------------------------------------------
 OpenMP Integral computing Module                
 Release: version 1.0, May 2013, Q-Chem Inc. Pittsburgh 
 -------------------------------------------------------
 -------------------------------------------------------
 OpenMP BLAS3 based DFT computing Module                
 Release: version 1.0, May 2013, Q-Chem Inc. Pittsburgh 
 -------------------------------------------------------
 A unrestricted SCF calculation will be
 performed using DIIS, GDM
 SCF converges when RMS gradient is below 1.0e-08
 ---------------------------------------
  Cycle       Energy         DIIS error
 ---------------------------------------
    1   -2013.8873494334      1.60e-03  
    2   -1997.5676114779      1.66e-02  
    3   -2008.1396157880      1.34e-02  
    4   -2011.2772574685      8.63e-03  Done DIIS. Switching to GDM
 ---------------------------------------
  Cycle       Energy        RMS Gradient
 ---------------------------------------
    1   -2011.2772574685      1.33e+00   Descent step
    2   -2011.8923431953      5.72e-01   Descent step
    3   -2012.2757502212      7.76e-01   Descent step
    4   -2012.5680335618      5.61e-01   Descent step
    5   -2012.4706744684      1.14e+00  Line search: overstep
    6   -2012.6314213328      1.93e-01   Descent step
    7   -2012.5203086473      7.60e-01  Line search: overstep
    8   -2012.6579808792      1.60e-01   Normal BFGS step
    9   -2012.6815402749      1.04e-01   Normal BFGS step
   10   -2012.6886353686      1.63e-01   Normal BFGS step
   11   -2012.6895610927      5.30e-01   Normal BFGS step
   12   -2012.7902329029      1.90e-01   Descent step
   13   -2012.7914118528      4.76e-01   Descent step
   14   -2012.7040498387      7.44e-01  Line search: overstep
   15   -2012.8818866426      1.22e-01   Descent step
   16   -2012.9862238487      1.75e-01   Descent step
   17   -2012.9968279282      6.01e-01   Descent step
   18   -2013.1088030634      5.98e-01   Descent step
   19   -2013.1457719375      6.68e-01   Descent step
   20   -2013.2626658932      4.76e-01   Descent step
   21   -2013.3492345620      6.11e-01   Descent step
   22   -2013.3623189313      7.94e-01   Descent step
   23   -2013.4622651799      7.06e-01   Descent step
   24   -2013.2513365390      1.33e+00  Line search: overstep
   25   -2013.5861726972      2.88e-01   Descent step
   26   -2013.7697289576      1.69e-01   Descent step
   27   -2013.7192322020      7.78e-01  Line search: overstep
   28   -2013.8047914839      1.49e-01   Descent step
   29   -2013.6871609975      7.28e-01  Line search: overstep
   30   -2013.8221080090      1.08e-01   Dog-leg BFGS step
   31   -2013.7398544203      5.38e-01  Line search: overstep
   32   -2013.8366412988      1.18e-01   Normal BFGS step
   33   -2013.8725963154      8.56e-02   Dog-leg BFGS step
   34   -2013.8579653682      2.58e-01  Line search: overstep
   35   -2013.8940011778      1.25e-01   Dog-leg BFGS step
   36   -2013.8595410722      2.53e-01  Line search: overstep
   37   -2013.9108880844      8.69e-02   Dog-leg BFGS step
   38   -2013.8595654273      4.18e-01  Line search: overstep
