
Running Job 1 of 1 sys_2_car_1_epox_opt_sto3g_gga.in
qchem sys_2_car_1_epox_opt_sto3g_gga.in_14611.0 /scr/c295_lal/157323/qchem14611/ 1
/usr/software/qchem_511/exe/qcprog.exe_s sys_2_car_1_epox_opt_sto3g_gga.in_14611.0 /scr/c295_lal/157323/qchem14611/
Check license passed

                  Welcome to Q-Chem
     A Quantum Leap Into The Future Of Chemistry


 Q-Chem 5.1, Q-Chem, Inc., Pleasanton, CA (2018)

 Yihan Shao,  Zhengting Gan,  E. Epifanovsky,  A. T. B. Gilbert,  M. Wormit,  
 J. Kussmann,  A. W. Lange,  A. Behn,  Jia Deng,  Xintian Feng,  D. Ghosh,  
 M. Goldey,  P. R. Horn,  L. D. Jacobson,  I. Kaliman,  T. Kus,  A. Landau,  
 Jie Liu,  E. I. Proynov,  R. M. Richard,  R. P. Steele,  E. J. Sundstrom,  
 H. L. Woodcock III,  P. M. Zimmerman,  D. Zuev,  B. Albrecht,  E. Alguire,  
 S. A. Baeppler,  D. Barton,  Z. Benda,  Y. A. Bernard,  E. J. Berquist,  
 K. B. Bravaya,  H. Burton,  D. Casanova,  Chun-Min Chang,  Yunqing Chen,  
 A. Chien,  K. D. Closser,  M. P. Coons,  S. Coriani,  S. Dasgupta,  
 A. L. Dempwolff,  M. Diedenhofen,  Hainam Do,  R. G. Edgar,  Po-Tung Fang,  
 S. Faraji,  S. Fatehi,  Qingguo Feng,  K. D. Fenk,  J. Fosso-Tande,  
 Qinghui Ge,  A. Ghysels,  G. Gidofalvi,  J. Gomes,  J. Gonthier,  A. Gunina,  
 D. Hait,  M. W. D. Hanson-Heine,  P. H. P. Harbach,  A. W. Hauser,  
 J. E. Herr,  E. G. Hohenstein,  Z. C. Holden,  Kerwin Hui,  B. C. Huynh,  
 T.-C. Jagau,  Hyunjun Ji,  B. Kaduk,  K. Khistyaev,  Jaehoon Kim,  
 P. Klunzinger,  K. Koh,  D. Kosenkov,  L. Koulias,  T. Kowalczyk,  
 C. M. Krauter,  A. Kunitsa,  Ka Un Lao,  A. Laurent,  K. V. Lawler,  
 Joonho Lee,  D. Lefrancois,  S. Lehtola,  D. S. Levine,  Yi-Pei Li,  
 You-Sheng Lin,  Fenglai Liu,  E. Livshits,  A. Luenser,  P. Manohar,  
 E. Mansoor,  S. F. Manzer,  Shan-Ping Mao,  Yuezhi Mao,  N. Mardirossian,  
 A. V. Marenich,  T. Markovich,  L. A. Martinez-Martinez,  S. A. Maurer,  
 N. J. Mayhall,  S. C. McKenzie,  J.-M. Mewes,  A. F. Morrison,  
 J. W. Mullinax,  K. Nanda,  T. S. Nguyen-Beck,  R. Olivares-Amaya,  
 J. A. Parkhill,  T. M. Perrine,  F. Plasser,  P. Pokhilko,  S. Prager,  
 A. Prociuk,  E. Ramos,  D. R. Rehn,  F. Rob,  M. Schneider,  N. Sergueev,  
 S. M. Sharada,  S. Sharma,  D. W. Small,  T. Stauch,  T. Stein,  
 Yu-Chuan Su,  A. J. W. Thom,  A. Tkatchenko,  T. Tsuchimochi,  N. M. Tubman,  
 L. Vogt,  M. L. Vidal,  O. Vydrov,  M. A. Watson,  J. Wenzel,  
 M. de Wergifosse,  T. A. Wesolowski,  A. White,  J. Witte,  A. Yamada,  
 Jun Yang,  K. Yao,  S. Yeganeh,  S. R. Yost,  Zhi-Qiang You,  A. Zech,  
 Igor Ying Zhang,  Xing Zhang,  Yan Zhao,  Ying Zhu,  B. R. Brooks,  
 G. K. L. Chan,  C. J. Cramer,  M. S. Gordon,  W. J. Hehre,  A. Klamt,  
 M. W. Schmidt,  C. D. Sherrill,  D. G. Truhlar,  A. Aspuru-Guzik,  R. Baer,  
 A. T. Bell,  N. A. Besley,  Jeng-Da Chai,  A. E. DePrince, III,  
 R. A. DiStasio Jr.,  A. Dreuw,  B. D. Dunietz,  T. R. Furlani,  
 Chao-Ping Hsu,  Yousung Jung,  Jing Kong,  D. S. Lambrecht,  WanZhen Liang,  
 C. Ochsenfeld,  V. A. Rassolov,  L. V. Slipchenko,  J. E. Subotnik,  
 T. Van Voorhis,  J. M. Herbert,  A. I. Krylov,  P. M. W. Gill,  M. Head-Gordon

 Contributors to earlier versions of Q-Chem not listed above: 
 R. D. Adamson,  B. Austin,  J. Baker,  G. J. O. Beran,  K. Brandhorst,  
 S. T. Brown,  E. F. C. Byrd,  A. K. Chakraborty,  C.-L. Cheng,  
 Siu Hung Chien,  D. M. Chipman,  D. L. Crittenden,  H. Dachsel,  
 R. J. Doerksen,  A. D. Dutoi,  L. Fusti-Molnar,  W. A. Goddard III,  
 A. Golubeva-Zadorozhnaya,  S. R. Gwaltney,  G. Hawkins,  A. Heyden,  
 S. Hirata,  G. Kedziora,  F. J. Keil,  C. Kelley,  Jihan Kim,  R. A. King,  
 R. Z. Khaliullin,  P. P. Korambath,  W. Kurlancheek,  A. M. Lee,  M. S. Lee,  
 S. V. Levchenko,  Ching Yeh Lin,  D. Liotard,  R. C. Lochan,  I. Lotan,  
 P. E. Maslen,  N. Nair,  D. P. O'Neill,  D. Neuhauser,  E. Neuscamman,  
 C. M. Oana,  R. Olson,  B. Peters,  R. Peverati,  P. A. Pieniazek,  
 Y. M. Rhee,  J. Ritchie,  M. A. Rohrdanz,  E. Rosta,  N. J. Russ,  
 H. F. Schaefer III,  N. E. Schultz,  N. Shenvi,  A. C. Simmonett,  A. Sodt,  
 D. Stuck,  K. S. Thanthiriwatte,  V. Vanovschi,  Tao Wang,  A. Warshel,  
 C. F. Williams,  Q. Wu,  X. Xu,  W. Zhang

 Please cite Q-Chem as follows:
 Y. Shao et al., Mol. Phys. 113, 184-215 (2015)
 DOI: 10.1080/00268976.2014.952696

 Q-Chem 5.1.1 for Intel X86 EM64T Linux

 Parts of Q-Chem use Armadillo 8.300.2 (Tropical Shenanigans).
 http://arma.sourceforge.net/

 Q-Chem begins on Wed Nov 28 00:02:00 2018  

Host: cub-0-7.local
0

     Scratch files written to /scr/c295_lal/157323/qchem14611//
 Aug318 |scratch|qcdevops|jenkins|workspace|build_RNUM -1
Processing $rem in /usr/software/qchem_511/config/preferences.
 MEM_TOTAL  2000 
Input Ideriv = 2
Curr. Ideriv = -1
Max.  Ideriv = 2

Checking the input file for inconsistencies... 	...done.

--------------------------------------------------------------
User input:
--------------------------------------------------------------
$molecule
2 5
Fe         0.29287       -0.25576        0.08878
O          0.53560       -1.96218        0.74805
H         -1.33811       -4.65395        1.32837
H         -2.06831        0.13155        2.84637
H         -3.83821       -1.76685        3.01587
O          1.19969       -1.71685        2.60387
H         -0.34831       -0.30515        3.01007
H         -3.40891       -4.25215        2.51877
C         -1.05921       -5.19045        2.25117
C         -1.33701       -0.42045        3.46607
H          5.68359       -3.24015        1.61527
C         -1.77071       -1.85785        3.59227
H          3.43529       -2.51485        2.42617
H         -1.57441       -6.16705        2.24907
H          0.02169       -5.39675        2.21507
C         -3.24011       -1.99135        3.92447
C         -0.96021       -2.94095        3.43697
C          0.51549       -2.87745        3.25797
C         -3.02791       -4.42475        3.54407
H          0.97939       -3.81175        2.93347
C          5.96699       -3.39535        2.66117
C         -1.48431       -4.39045        3.50337
H         -1.34591        0.07655        4.45527
C          3.73839       -2.69645        3.46307
H         -3.50781       -1.19615        4.64587
C          1.44789       -1.99825        4.03457
C         -3.61661       -3.36525        4.46517
H         -3.34791       -5.44185        3.83267
H         -4.71201       -3.46875        4.53387
H          6.98479       -3.74355        2.84917
C          5.09419       -3.16355        3.66787
C          2.80649       -2.44515        4.42167
H          0.97289       -1.27365        4.70957
C         -0.91261       -5.08745        4.75717
H         -3.22491       -3.48595        5.49197
H          0.19099       -5.06525        4.76327
H         -1.22371       -6.14685        4.78507
H          5.42539       -3.33555        4.69747
H         -1.26131       -4.59885        5.68277
C          3.00389       -2.59775        5.90237
H          2.80059       -1.64495        6.42577
H          4.02159       -2.91235        6.16737
H          2.30019       -3.33985        6.32557
$end

$rem
BASIS = STO-3G
METHOD  = BLYP
JOBTYPE = OPT
MAX_SCF_CYCLES = 500
SCF_ALGORITHM = DIIS_GDM
$end
--------------------------------------------------------------
 ----------------------------------------------------------------
             Standard Nuclear Orientation (Angstroms)
    I     Atom           X                Y                Z
 ----------------------------------------------------------------
    1      Fe     -0.2651435580     3.6600742574     0.2214037576
    2      O      -0.3385819123     2.0261512839     1.0759951962
    3      H       1.7735863384    -0.0134628191     2.6482247567
    4      H       2.1675416354     2.0464969954    -1.9712872389
    5      H       4.0938193946     0.8262953875    -0.7199835785
    6      O      -0.9436481768     0.7375987245    -0.3092114045
    7      H       0.4977486352     1.4904030019    -1.6911883508
    8      H       3.8513598791    -0.4663607298     1.4887211405
    9      C       1.5782609273    -1.0814087159     2.4519676666
   10      C       1.5105432174     1.1571645385    -1.9401000636
   11      H      -5.3231609721     0.0977188364     1.6436207604
   12      C       2.0664345766     0.1573995859    -0.9594901888
   13      H      -3.1110309174     0.1568027770     0.4854059707
   14      H       2.1719177601    -1.6759028746     3.1684390688
   15      H       0.5175526450    -1.2819312252     2.6685233707
   16      C       3.5542772980    -0.0537805004    -1.1299086662
   17      C       1.3425532958    -0.5052579930    -0.0155543995
   18      C      -0.1394622723    -0.4554572963     0.1065663875
   19      C       3.5285068479    -1.3814321849     0.9552401171
   20      H      -0.5375004239    -0.8639919828     1.0382771741
   21      C      -5.5494211936    -0.8130632400     1.0800679841
   22      C       1.9869945043    -1.4603533332     1.0104224228
   23      H       1.5190721280     0.7413964160    -2.9660966406
   24      C      -3.3550949568    -0.7662134744    -0.0517006521
   25      H       3.7848094508    -0.0510187033    -2.2121616814
   26      C      -1.1085690568    -0.5416416769    -1.0331152578
   27      C       4.0650422705    -1.3278504719    -0.4684142968
   28      H       3.9431251229    -2.2372954408     1.5171761841
   29      H       5.1671464417    -1.3536082957    -0.4744168217
   30      H      -6.5263329103    -1.2693621313     1.2530965932
   31      C      -4.6580383127    -1.3419429516     0.2113454851
   32      C      -2.4084590156    -1.2411665095    -0.9054004058
   33      H      -0.6676979463    -0.5326166841    -2.0390210056
   34      C       1.5270301684    -2.9069051550     0.7265475091
   35      H       3.7273056481    -2.2109444962    -1.0414714826
   36      H       0.4265651383    -2.9912651223     0.7445231415
   37      H       1.9255418968    -3.5956279541     1.4925366007
   38      H      -4.9311767249    -2.2555910117    -0.3271674953
   39      H       1.8719799623    -3.2514088309    -0.2630907415
   40      C      -2.5313862318    -2.4691627086    -1.7607601222
   41      H      -2.3861677422    -2.2200303219    -2.8284449700
   42      H      -3.5078037156    -2.9612100753    -1.6637563265
   43      H      -1.7518999034    -3.2129829504    -1.5075075769
 ----------------------------------------------------------------
 Molecular Point Group                 C1    NOp =  1
 Largest Abelian Subgroup              C1    NOp =  1
 Nuclear Repulsion Energy =  1765.6722991337 hartrees
 There are       82 alpha and       78 beta electrons
 Requested basis set is STO-3G
 There are 65 shells and 132 basis functions

 Total QAlloc Memory Limit   2000 MB
 Mega-Array Size       188 MB
 MEM_STATIC part       192 MB
 A cutoff of  1.0D-12 yielded   1671 shell pairs
 There are      7440 function pairs (      7529 Cartesian)
 
 -------------------------------------------------------
 OpenMP Integral Computing Module                       
 Release: version 1.0, May 2013, Q-Chem Inc. Pittsburgh 
 -------------------------------------------------------
 Integral Job Info:
 Integral job number is                      11
 Integral operator is                         1
 short-range coefficients                     0
 long-range coefficients              100000000
 Omega coefficients                           0
 if combine SR and LR in K                    0
 Integral screening is                        0
 Integral computing path is                   2
 max size of driver memory is            800000
 size of driver memory is                593474
 size of scratch memory is             10861360
 max col of scratch BK array               1296
 max len of scratch array in speh3          155
 max len of scratch index in speh4           18
 max int batch size is                      520
 min int batch size is                       52
 fixed nKL is                                52
 max L of basis functions is                  2
 order of int derivative is                   0
 number of shells is                         65
 number of basis is                         133
 number of cartesian basis is               133
 number of contracted shell pairs          1671
 number of primitive shell pairs           8899
 maxK2 (contraction) of shell pair            9
 max number of K2 of shell pair               1
 max number of CS2 of shell pair            232
 max number of PS2 of shell pair           1038
 mem total for path MDJ                  534602
 -------------------------------------------------------
 Smallest overlap matrix eigenvalue = 1.90E-01

 Scale SEOQF with 1.000000e-02/1.000000e-01/1.000000e-01

 Standard Electronic Orientation quadrupole field applied
 Nucleus-field energy     =     0.0000000269 hartrees
 Guess from superposition of atomic densities
 Warning:  Energy on first SCF cycle will be non-variational
 SAD guess density has 162.000000 electrons

 -----------------------------------------------------------------------
  General SCF calculation program by
  Eric Jon Sundstrom, Paul Horn, Yuezhi Mao, Dmitri Zuev, Alec White,
  David Stuck, Shaama M.S., Shane Yost, Joonho Lee, David Small,
  Daniel Levine, Susi Lehtola, Hugh Burton, Evgeny Epifanovsky
 -----------------------------------------------------------------------
 Exchange:  B88      Correlation:  LYP
 Using SG-1 standard quadrature grid
 using 12 threads for integral computing
 -------------------------------------------------------
 OpenMP Integral computing Module                
 Release: version 1.0, May 2013, Q-Chem Inc. Pittsburgh 
 -------------------------------------------------------
 -------------------------------------------------------
 OpenMP BLAS3 based DFT computing Module                
 Release: version 1.0, May 2013, Q-Chem Inc. Pittsburgh 
 -------------------------------------------------------
 A unrestricted SCF calculation will be
 performed using DIIS, GDM
 SCF converges when RMS gradient is below 1.0e-08
 ---------------------------------------
  Cycle       Energy         DIIS error
 ---------------------------------------
    1   -2012.3112483403      4.04e-02  
    2   -2013.6170237822      3.50e-03  Done DIIS. Switching to GDM
 ---------------------------------------
  Cycle       Energy        RMS Gradient
 ---------------------------------------
    1   -2013.6170237822      5.52e-01   Descent step
    2   -2013.0674991944      1.45e+00  Line search: overstep
    3   -2013.6894997642      2.38e-01   Descent step
    4   -2013.6325309841      9.38e-01  Line search: overstep
    5   -2013.7485574819      5.79e-01   Descent step
    6   -2012.9889709847      1.77e+00  Line search: overstep
    7   -2013.7770979799      1.54e-01   Descent step
    8   -2013.7332175808      9.91e-01  Line search: overstep
    9   -2013.8015779085      3.39e-01   Descent step
   10   -2013.0504763719      1.90e+00  Line search: overstep
   11   -2013.8190982654      1.36e-01   Dog-leg BFGS step
   12   -2013.8588322655      1.26e-01   Normal BFGS step
   13   -2013.8030804287      4.73e-01  Line search: overstep
   14   -2013.8678416520      4.96e-02   Normal BFGS step
   15   -2013.8628858679      2.05e-01  Line search: overstep
   16   -2013.8727935369      6.66e-02   Normal BFGS step
   17   -2013.8718364606      7.72e-02  Line search: overstep
   18   -2013.8749260919      2.25e-02   Normal BFGS step
   19   -2013.8742867853      6.03e-02  Line search: overstep
   20   -2013.8755571637      1.54e-02   Normal BFGS step
   21   -2013.8757390352      1.88e-02   Normal BFGS step
   22   -2013.8760351912      8.81e-03   Normal BFGS step
   23   -2013.8760232932      7.10e-03  Line search: overstep
   24   -2013.8761190539      4.87e-03   Normal BFGS step
   25   -2013.8761538894      3.00e-03   Normal BFGS step
   26   -2013.8761631771      1.52e-03   Normal BFGS step
   27   -2013.8761719441      1.15e-03   Normal BFGS step
   28   -2013.8761741576      5.71e-04   Normal BFGS step
   29   -2013.8761755661      4.30e-04   Normal BFGS step
   30   -2013.8761757899      2.66e-04   Normal BFGS step
   31   -2013.8761760721      1.32e-04   Normal BFGS step
   32   -2013.8761760955      1.64e-04   Normal BFGS step
   33   -2013.8761761565      7.57e-05   Normal BFGS step
   34   -2013.8761761647      5.05e-05   Normal BFGS step
   35   -2013.8761761738      2.34e-05   Normal BFGS step
   36   -2013.8761761755      2.24e-05   Normal BFGS step
   37   -2013.8761761772      1.14e-05   Normal BFGS step
   38   -2013.8761761773      2.08e-05   Normal BFGS step
   39   -2013.8761761768      4.34e-05   Normal BFGS step
   40   -2013.8761761775      1.61e-05   Normal BFGS step
   41   -2013.8761761774      3.28e-05   Normal BFGS step
   42   -2013.8761761776      1.32e-05   Normal BFGS step
   43   -2013.8761761777      6.59e-06   Normal BFGS step
   44   -2013.8761761778      3.23e-06   Normal BFGS step
   45   -2013.8761761778      2.91e-06   Normal BFGS step
   46   -2013.8761761778      1.40e-06   Normal BFGS step
   47   -2013.8761761778      1.58e-06   Normal BFGS step
   48   -2013.8761761778      3.78e-07   Normal BFGS step
   49   -2013.8761761778      3.16e-07   Normal BFGS step
   50   -2013.8761761778      2.39e-07   Normal BFGS step
   51   -2013.8761761778      1.80e-07   Normal BFGS step
   52   -2013.8761761778      1.06e-07   Normal BFGS step
   53   -2013.8761761778      1.26e-07   Normal BFGS step
   54   -2013.8761761778      2.63e-08   Normal BFGS step
  /scratch/qcdevops/jenkins/workspace/build_qchem_linux_distrib/tags/qc511/qchem/libgscf/libgscf/opt/gdm.C::WARNING energy changes are now smaller than effective accuracy.
  /scratch/qcdevops/jenkins/workspace/build_qchem_linux_distrib/tags/qc511/qchem/libgscf/libgscf/opt/gdm.C::        calculation will continue, but THRESH should be increased
  /scratch/qcdevops/jenkins/workspace/build_qchem_linux_distrib/tags/qc511/qchem/libgscf/libgscf/opt/gdm.C::        or SCF_CONVERGENCE decreased. 
  /scratch/qcdevops/jenkins/workspace/build_qchem_linux_distrib/tags/qc511/qchem/libgscf/libgscf/opt/gdm.C::        effective_thresh = 3.02e-09
   55   -2013.8761761778      3.73e-08   Normal BFGS step
   56   -2013.8761761778      1.53e-08   Normal BFGS step
   57   -2013.8761761778      4.36e-08   Normal BFGS step
   58   -2013.8761761778      3.79e-08   Normal BFGS step
   59   -2013.8761761778      2.75e-08   Normal BFGS step
   60   -2013.8761761778      9.54e-09  Convergence criterion met
 ---------------------------------------
 SCF time:   CPU 522.21s  wall 44.00s 
<S^2> =          7.239542005
 SCF   energy in the final basis set =    -2013.8761761778
 Total energy in the final basis set =    -2013.8761761778
 
 --------------------------------------------------------------
 
                    Orbital Energies (a.u.)
 --------------------------------------------------------------
 
 Alpha MOs
 -- Occupied --
******* -29.688 -26.242 -26.241 -26.237 -18.919 -18.878 -10.132
-10.123 -10.087 -10.071 -10.070 -10.061 -10.054 -10.051 -10.026
-10.023 -10.020 -10.008  -9.971  -9.970  -9.969  -9.967  -3.879
 -2.720  -2.717  -2.708  -1.235  -1.066  -1.003  -0.999  -0.941
 -0.931  -0.906  -0.869  -0.860  -0.848  -0.815  -0.803  -0.801
 -0.767  -0.735  -0.723  -0.715  -0.694  -0.682  -0.647  -0.638
 -0.632  -0.618  -0.610  -0.602  -0.599  -0.593  -0.584  -0.575
 -0.572  -0.567  -0.561  -0.559  -0.557  -0.554  -0.550  -0.547
 -0.547  -0.546  -0.544  -0.532  -0.528  -0.519  -0.513  -0.505
 -0.495  -0.494  -0.490  -0.461  -0.456  -0.455  -0.448  -0.439
 -0.427  -0.422
 -- Virtual --
 -0.410  -0.397  -0.284  -0.277  -0.272  -0.239  -0.160  -0.129
 -0.116  -0.088  -0.001   0.005   0.021   0.055   0.066   0.070
  0.079   0.081   0.086   0.089   0.104   0.112   0.120   0.124
  0.132   0.135   0.138   0.144   0.148   0.162   0.164   0.176
  0.179   0.181   0.194   0.203   0.206   0.210   0.221   0.236
  0.244   0.250   0.258   0.266   0.268   0.276   0.293   0.341
  0.380   0.391
 
 Beta MOs
 -- Occupied --
******* -29.648 -26.209 -26.208 -26.207 -18.920 -18.891 -10.132
-10.123 -10.086 -10.070 -10.068 -10.059 -10.053 -10.049 -10.026
-10.023 -10.020 -10.008  -9.971  -9.970  -9.969  -9.967  -3.666
 -2.505  -2.502  -2.498  -1.238  -1.117  -0.999  -0.996  -0.939
 -0.929  -0.905  -0.868  -0.858  -0.848  -0.813  -0.803  -0.801
 -0.766  -0.735  -0.722  -0.714  -0.693  -0.685  -0.647  -0.637
 -0.630  -0.621  -0.607  -0.601  -0.598  -0.592  -0.584  -0.575
 -0.571  -0.567  -0.560  -0.559  -0.554  -0.550  -0.544  -0.533
 -0.526  -0.517  -0.510  -0.504  -0.494  -0.491  -0.485  -0.481
 -0.460  -0.455  -0.451  -0.449  -0.432  -0.423
 -- Virtual --
 -0.410  -0.340  -0.334  -0.334  -0.331  -0.328  -0.285  -0.276
 -0.271  -0.225  -0.154  -0.129  -0.116  -0.090   0.000   0.006
  0.022   0.058   0.068   0.070   0.081   0.082   0.089   0.090
  0.105   0.115   0.122   0.126   0.133   0.137   0.140   0.146
  0.149   0.163   0.166   0.177   0.180   0.182   0.195   0.204
  0.207   0.211   0.222   0.237   0.244   0.250   0.260   0.268
  0.268   0.276   0.294   0.344   0.385   0.393
 --------------------------------------------------------------
 
          Ground-State Mulliken Net Atomic Charges

     Atom                 Charge (a.u.)    Spin (a.u.)
  --------------------------------------------------------
      1 Fe                    0.653830       4.374469
      2 O                    -0.081184      -0.953697
      3 H                     0.082907       0.000535
      4 H                     0.121990       0.009248
      5 H                     0.123287       0.019651
      6 O                    -0.101967      -0.077051
      7 H                     0.080721       0.000584
      8 H                     0.084667       0.000806
      9 C                    -0.215774       0.010252
     10 C                    -0.237139      -0.009766
     11 H                     0.136132      -0.006566
     12 C                     0.073568       0.178253
     13 H                     0.117807      -0.002186
     14 H                     0.111953       0.000344
     15 H                     0.076231      -0.000584
     16 C                    -0.138007      -0.003603
     17 C                     0.033543       0.131711
     18 C                     0.011542       0.011368
     19 C                    -0.131406      -0.000335
     20 H                     0.135938       0.001795
     21 C                    -0.052281       0.159506
     22 C                     0.026708       0.003539
     23 H                     0.131445       0.013613
     24 C                    -0.026606       0.050464
     25 H                     0.121328       0.007949
     26 C                     0.017195      -0.058100
     27 C                    -0.134276       0.002002
     28 H                     0.104368      -0.000335
     29 H                     0.112796      -0.000546
     30 H                     0.159465      -0.006698
     31 C                    -0.033767       0.020102
     32 C                     0.062351       0.094577
     33 H                     0.141103       0.002560
     34 C                    -0.214326       0.021288
     35 H                     0.088296       0.000351
     36 H                     0.071772      -0.000736
     37 H                     0.111456       0.001245
     38 H                     0.135368      -0.000871
     39 H                     0.091144      -0.000429
     40 C                    -0.228009      -0.007141
     41 H                     0.128605       0.005560
     42 H                     0.121053      -0.000770
     43 H                     0.126174       0.007639
  --------------------------------------------------------
  Sum of atomic charges =     2.000000
  Sum of spin   charges =     4.000000

 -----------------------------------------------------------------
                    Cartesian Multipole Moments
 -----------------------------------------------------------------
    Charge (ESU x 10^10)
                 9.6064
    Dipole Moment (Debye)
         X      -6.8723      Y       3.7065      Z      -1.2747
       Tot       7.9115
    Quadrupole Moments (Debye-Ang)
        XX     -29.8163     XY       9.9980     YY     -61.0615
        XZ      -7.2041     YZ       2.7114     ZZ     -99.5899
    Octopole Moments (Debye-Ang^2)
       XXX    -252.3370    XXY     -68.2374    XYY     -28.2833
       YYY     173.4486    XXZ      34.8686    XYZ     -16.6297
       YYZ       9.4488    XZZ      -3.4470    YZZ       8.6526
       ZZZ      -6.7976
    Hexadecapole Moments (Debye-Ang^3)
      XXXX   -2835.2132   XXXY     326.9258   XXYY   -1084.2122
      XYYY     -23.8917   YYYY   -2011.5818   XXXZ    -328.0502
      XXYZ     -17.0323   XYYZ      34.6761   YYYZ      77.1456
      XXZZ    -870.5713   XYZZ       6.9009   YYZZ    -567.1382
      XZZZ      -7.5733   YZZZ      23.8352   ZZZZ    -963.0277
 -----------------------------------------------------------------
 Calculating analytic gradient of the SCF energy
 Gradient of SCF Energy
            1           2           3           4           5           6
    1   0.0052422  -0.0036685  -0.0015157  -0.0045119  -0.0019128  -0.0027571
    2   0.0799354  -0.0972521  -0.0037613  -0.0027815  -0.0071105  -0.0248547
    3  -0.0458393   0.0382727  -0.0015691   0.0008070  -0.0035302  -0.0166270
            7           8           9          10          11          12
    1   0.0100111  -0.0017523   0.0099114   0.0055057  -0.0014103  -0.0243182
    2   0.0007436  -0.0024184  -0.0087769  -0.0152866  -0.0115500  -0.0214148
    3  -0.0010656  -0.0026188  -0.0229621   0.0115527  -0.0076179   0.0317879
           13          14          15          16          17          18
    1  -0.0026401  -0.0025133   0.0051610  -0.0119328   0.0190492  -0.0181262
    2  -0.0114448   0.0018629   0.0016915  -0.0062699   0.0289670  -0.0149141
    3  -0.0077338  -0.0008995  -0.0009397   0.0101415  -0.0317946  -0.0346525
           19          20          21          22          23          24
    1  -0.0182686   0.0021350   0.0184407  -0.0044755   0.0004844   0.0321464
    2  -0.0033717   0.0088491  -0.0192744  -0.0033909   0.0029299  -0.0171532
    3  -0.0183480  -0.0151994  -0.0232229  -0.0012115   0.0057360  -0.0349826
           25          26          27          28          29          30
    1  -0.0004424   0.0290568  -0.0108382  -0.0016744  -0.0063018   0.0135975
    2  -0.0021001   0.0073591   0.0212563   0.0040305  -0.0024416   0.0073274
    3   0.0076076   0.0555283   0.0078344  -0.0003602  -0.0002846  -0.0025554
           31          32          33          34          35          36
    1  -0.0222153  -0.0240754  -0.0054735   0.0117734   0.0013513   0.0037344
    2   0.0203416   0.0226472   0.0065797   0.0258035   0.0030450   0.0001210
    3   0.0291988   0.0266782   0.0148003   0.0088020   0.0028314  -0.0008080
           37          38          39          40          41          42
    1  -0.0026035   0.0024061  -0.0022480   0.0055022  -0.0012718   0.0065333
    2   0.0002645   0.0099680   0.0020571   0.0174989  -0.0025384   0.0021929
    3  -0.0025844   0.0058115   0.0035116   0.0147994   0.0060850  -0.0014854
           43
    1  -0.0050946
    2   0.0026337
    3  -0.0028936
 Max gradient component =       9.725E-02
 RMS gradient           =       1.845E-02
 Gradient time:  CPU 27.44 s  wall 2.39 s
 Geometry Optimization Parameters
   NAtoms,    NIC,     NZ,  NCons,   NDum,   NFix, NCnnct, MaxDiis
       43     329       0       0       0       0       0       0


** GEOMETRY OPTIMIZATION IN DELOCALIZED INTERNAL COORDINATES **
   Searching for a Minimum

   Optimization Cycle:   1

                       Coordinates (Angstroms)
     ATOM                X               Y               Z
      1  Fe       -0.2651435580    3.6600742574    0.2214037576
      2  O        -0.3385819123    2.0261512839    1.0759951962
      3  H         1.7735863384   -0.0134628191    2.6482247567
      4  H         2.1675416354    2.0464969954   -1.9712872389
      5  H         4.0938193946    0.8262953875   -0.7199835785
      6  O        -0.9436481768    0.7375987245   -0.3092114045
      7  H         0.4977486352    1.4904030019   -1.6911883508
      8  H         3.8513598791   -0.4663607298    1.4887211405
      9  C         1.5782609273   -1.0814087159    2.4519676666
     10  C         1.5105432174    1.1571645385   -1.9401000636
     11  H        -5.3231609721    0.0977188364    1.6436207604
     12  C         2.0664345766    0.1573995859   -0.9594901888
     13  H        -3.1110309174    0.1568027770    0.4854059707
     14  H         2.1719177601   -1.6759028746    3.1684390688
     15  H         0.5175526450   -1.2819312252    2.6685233707
     16  C         3.5542772980   -0.0537805004   -1.1299086662
     17  C         1.3425532958   -0.5052579930   -0.0155543995
     18  C        -0.1394622723   -0.4554572963    0.1065663875
     19  C         3.5285068479   -1.3814321849    0.9552401171
     20  H        -0.5375004239   -0.8639919828    1.0382771741
     21  C        -5.5494211936   -0.8130632400    1.0800679841
     22  C         1.9869945043   -1.4603533332    1.0104224228
     23  H         1.5190721280    0.7413964160   -2.9660966406
     24  C        -3.3550949568   -0.7662134744   -0.0517006521
     25  H         3.7848094508   -0.0510187033   -2.2121616814
     26  C        -1.1085690568   -0.5416416769   -1.0331152578
     27  C         4.0650422705   -1.3278504719   -0.4684142968
     28  H         3.9431251229   -2.2372954408    1.5171761841
     29  H         5.1671464417   -1.3536082957   -0.4744168217
     30  H        -6.5263329103   -1.2693621313    1.2530965932
     31  C        -4.6580383127   -1.3419429516    0.2113454851
     32  C        -2.4084590156   -1.2411665095   -0.9054004058
     33  H        -0.6676979463   -0.5326166841   -2.0390210056
     34  C         1.5270301684   -2.9069051550    0.7265475091
     35  H         3.7273056481   -2.2109444962   -1.0414714826
     36  H         0.4265651383   -2.9912651223    0.7445231415
     37  H         1.9255418968   -3.5956279541    1.4925366007
     38  H        -4.9311767249   -2.2555910117   -0.3271674953
     39  H         1.8719799623   -3.2514088309   -0.2630907415
     40  C        -2.5313862318   -2.4691627086   -1.7607601222
     41  H        -2.3861677422   -2.2200303219   -2.8284449700
     42  H        -3.5078037156   -2.9612100753   -1.6637563265
     43  H        -1.7518999034   -3.2129829504   -1.5075075769
   Point Group: c1    Number of degrees of freedom:   123


   Energy is  -2013.876176178


 Attempting to Generate Delocalized Internal Coordinates

123 Hessian modes will be used to form the next step
  Hessian Eigenvalues:
     0.002000    0.003154    0.003327    0.004666    0.004997    0.008293
     0.008538    0.008970    0.010783    0.011378    0.011603    0.012015
     0.015143    0.015923    0.015984    0.020594    0.021824    0.022387
     0.022967    0.027654    0.028705    0.028705    0.030380    0.030484
     0.032195    0.043628    0.047571    0.047939    0.049722    0.051937
     0.052655    0.053520    0.054364    0.055351    0.056538    0.059967
     0.068828    0.069444    0.070257    0.073436    0.075334    0.078012
     0.078652    0.083857    0.084169    0.091252    0.096890    0.098526
     0.098605    0.105241    0.110277    0.121053    0.133855    0.159993
     0.160000    0.160000    0.160000    0.160000    0.160000    0.160000
     0.160000    0.160000    0.160000    0.160000    0.160000    0.160000
     0.160000    0.160000    0.160000    0.160699    0.188502    0.220000
     0.220002    0.228449    0.229628    0.245844    0.249575    0.249957
     0.249979    0.249998    0.250000    0.258817    0.270651    0.278386
     0.280332    0.280661    0.281470    0.288436    0.295097    0.305212
     0.316846    0.322127    0.325249    0.328838    0.329122    0.329413
     0.329694    0.330128    0.330335    0.330721    0.331765    0.331908
     0.332256    0.332610    0.333244    0.333304    0.333501    0.334157
     0.335714    0.336837    0.338692    0.339395    0.341904    0.342242
     0.342550    0.342781    0.343785    0.345325    0.345804    0.384345
     0.506872    0.528805    0.545162

 Minimum Search - Taking Simple RFO Step
 Searching for Lamda that Minimizes Along All modes
 Value Taken    Lamda =  -0.08926604
 Calculated Step too Large.  Step scaled by  0.600051
 Step Taken.  Stepsize is  0.300000

                             Maximum     Tolerance    Cnvgd?
         Gradient           0.064679      0.000300      NO
         Displacement       0.116482      0.001200      NO
         Energy change     *********      0.000001      NO


 New Cartesian Coordinates Obtained by Inverse Iteration

 Displacement from previous Coordinates is:  0.878544
 ----------------------------------------------------------------
             Standard Nuclear Orientation (Angstroms)
    I     Atom           X                Y                Z
 ----------------------------------------------------------------
    1      Fe     -0.3673097407     3.6730266616     0.3398000925
    2      O      -0.3763107317     2.1037275616     1.1214983681
    3      H       1.8216101875     0.0162201679     2.6935427508
    4      H       2.1919581888     2.0432606298    -2.0534766183
    5      H       4.1523237674     0.8177318738    -0.7724931162
    6      O      -0.9592246491     0.7777475219    -0.2784979595
    7      H       0.5116204690     1.4882449023    -1.7412899551
    8      H       3.9238835561    -0.4710960931     1.4925024910
    9      C       1.6161986999    -1.0546143865     2.5057422794
   10      C       1.5303512703     1.1540870944    -1.9947624109
   11      H      -5.4024908035     0.0629038300     1.6848655901
   12      C       2.1024312119     0.1600568543    -0.9879225549
   13      H      -3.1711097091     0.1469865959     0.5212769065
   14      H       2.2144872513    -1.6491516390     3.2217345931
   15      H       0.5520875397    -1.2483523936     2.7323240257
   16      C       3.6045074578    -0.0718602497    -1.1669424471
   17      C       1.3640080812    -0.4976229667    -0.0018729793
   18      C      -0.1377645567    -0.4254543238     0.1308388680
   19      C       3.5875363576    -1.3907363698     0.9693740131
   20      H      -0.5315009767    -0.8452844100     1.0739739028
   21      C      -5.6265710337    -0.8428077696     1.0931069252
   22      C       2.0205859092    -1.4591206703     1.0424787915
   23      H       1.5269287013     0.7123625264    -3.0152060938
   24      C      -3.4112693874    -0.7706974725    -0.0470065941
   25      H       3.8258140809    -0.0841842605    -2.2568923308
   26      C      -1.1297170216    -0.5089889569    -1.0442698630
   27      C       4.1169732424    -1.3573731158    -0.4789839221
   28      H       4.0045676442    -2.2472509480     1.5343699376
   29      H       5.2235706680    -1.3872149345    -0.4939053138
   30      H      -6.6122790858    -1.3109579206     1.2566465612
   31      C      -4.7199347068    -1.3628009471     0.1952761136
   32      C      -2.4423513329    -1.2321928486    -0.9334401291
   33      H      -0.6849757374    -0.4938747483    -2.0611234408
   34      C       1.5380735656    -2.9292533072     0.7704413061
   35      H       3.7674420760    -2.2472899094    -1.0406247339
   36      H       0.4345159450    -3.0063014742     0.8009330611
   37      H       1.9435222470    -3.6081578833     1.5446679265
   38      H      -4.9912293434    -2.2706423548    -0.3709320202
   39      H       1.8743107354    -3.2903516709    -0.2200414300
   40      C      -2.5691666598    -2.4549861961    -1.8301731048
   41      H      -2.4260361886    -2.1766128428    -2.8960980866
   42      H      -3.5497570333    -2.9513099954    -1.7389484509
   43      H      -1.7821709153    -3.2025592175    -1.5916390291
 ----------------------------------------------------------------
 Molecular Point Group                 C1    NOp =  1
 Largest Abelian Subgroup              C1    NOp =  1
 Nuclear Repulsion Energy =  1744.2797807192 hartrees
 There are       82 alpha and       78 beta electrons
 Applying Cartesian multipole field
    Component          Value
    ---------          -----
     (2,0,0)        1.00000E-12
     (0,2,0)        2.00000E-11
     (0,0,2)       -3.00000E-11
 Nucleus-field energy     =     0.0000000262 hartrees
 Requested basis set is STO-3G
 There are 65 shells and 132 basis functions
 A cutoff of  1.0D-12 yielded   1662 shell pairs
 There are      7415 function pairs (      7503 Cartesian)
 Smallest overlap matrix eigenvalue = 2.01E-01
 Guess MOs from SCF MO coefficient file

 -----------------------------------------------------------------------
  General SCF calculation program by
  Eric Jon Sundstrom, Paul Horn, Yuezhi Mao, Dmitri Zuev, Alec White,
  David Stuck, Shaama M.S., Shane Yost, Joonho Lee, David Small,
  Daniel Levine, Susi Lehtola, Hugh Burton, Evgeny Epifanovsky
 -----------------------------------------------------------------------
 Exchange:  B88      Correlation:  LYP
 Using SG-1 standard quadrature grid
 using 12 threads for integral computing
 -------------------------------------------------------
 OpenMP Integral computing Module                
 Release: version 1.0, May 2013, Q-Chem Inc. Pittsburgh 
 -------------------------------------------------------
 -------------------------------------------------------
 OpenMP BLAS3 based DFT computing Module                
 Release: version 1.0, May 2013, Q-Chem Inc. Pittsburgh 
 -------------------------------------------------------
 A unrestricted SCF calculation will be
 performed using DIIS, GDM
 SCF converges when RMS gradient is below 1.0e-08
 ---------------------------------------
  Cycle       Energy         DIIS error
 ---------------------------------------
    1   -2013.9126945421      5.76e-04  
    2   -2013.8324207208      2.33e-03  Done DIIS. Switching to GDM
 ---------------------------------------
  Cycle       Energy        RMS Gradient
 ---------------------------------------
    1   -2013.8324207208      5.62e-01   Descent step
    2   -2013.1865954931      1.80e+00  Line search: overstep
    3   -2013.8868874069      2.42e-01   Descent step
    4   -2013.7929572624      3.93e-01  Line search: overstep
    5   -2013.9080944364      1.05e-01   Normal BFGS step
    6   -2013.9093464760      1.20e-01   Normal BFGS step
    7   -2013.9155279169      1.19e-01   Normal BFGS step
    8   -2013.9130598783      1.73e-01  Line search: overstep
    9   -2013.9209644183      3.33e-02   Normal BFGS step
   10   -2013.9178213026      7.86e-02  Line search: overstep
   11   -2013.9221236642      2.66e-02   Normal BFGS step
   12   -2013.9224112734      1.84e-02   Normal BFGS step
   13   -2013.9225983291      8.02e-03   Normal BFGS step
   14   -2013.9225214033      1.33e-02  Line search: overstep
   15   -2013.9226638958      2.55e-03   Normal BFGS step
   16   -2013.9226697132      3.55e-03   Normal BFGS step
   17   -2013.9226806054      1.74e-03   Normal BFGS step
   18   -2013.9226842027      7.64e-04   Normal BFGS step
   19   -2013.9226866265      7.53e-04   Normal BFGS step
   20   -2013.9226882298      5.77e-04   Normal BFGS step
   21   -2013.9226891581      4.11e-04   Normal BFGS step
   22   -2013.9226895142      4.00e-04   Normal BFGS step
   23   -2013.9226896359      1.39e-04   Normal BFGS step
   24   -2013.9226896690      7.69e-05   Normal BFGS step
   25   -2013.9226896832      6.91e-05   Normal BFGS step
   26   -2013.9226896903      4.27e-05   Normal BFGS step
   27   -2013.9226896882      8.05e-05   Normal BFGS step
   28   -2013.9226896961      5.85e-05   Normal BFGS step
   29   -2013.9226896977      3.44e-05   Normal BFGS step
   30   -2013.9226897007      1.08e-05   Normal BFGS step
   31   -2013.9226897007      2.17e-05   Normal BFGS step
   32   -2013.9226897008      3.65e-05   Normal BFGS step
   33   -2013.9226897012      1.11e-05   Normal BFGS step
   34   -2013.9226897013      8.74e-06   Normal BFGS step
   35   -2013.9226897013      7.84e-06   Normal BFGS step
   36   -2013.9226897014      4.23e-06   Normal BFGS step
   37   -2013.9226897014      4.88e-06   Normal BFGS step
   38   -2013.9226897015      2.18e-06   Normal BFGS step
   39   -2013.9226897015      2.54e-06   Normal BFGS step
   40   -2013.9226897015      1.23e-06   Normal BFGS step
   41   -2013.9226897015      2.32e-06   Normal BFGS step
   42   -2013.9226897015      5.94e-07   Normal BFGS step
   43   -2013.9226897015      1.65e-06   Normal BFGS step
   44   -2013.9226897015      1.79e-07   Normal BFGS step
   45   -2013.9226897015      4.68e-07   Normal BFGS step
   46   -2013.9226897015      2.13e-07   Normal BFGS step
   47   -2013.9226897015      6.10e-07   Normal BFGS step
   48   -2013.9226897015      8.48e-08   Normal BFGS step
   49   -2013.9226897015      1.23e-07   Normal BFGS step
   50   -2013.9226897015      6.31e-08   Normal BFGS step
   51   -2013.9226897015      1.40e-07   Normal BFGS step
   52   -2013.9226897015      5.09e-08   Normal BFGS step
   53   -2013.9226897015      5.23e-08   Normal BFGS step
   54   -2013.9226897015      4.00e-09  Convergence criterion met
 ---------------------------------------
 SCF time:   CPU 470.85s  wall 39.00s 
<S^2> =          6.905373324
 SCF   energy in the final basis set =    -2013.9226897015
 Total energy in the final basis set =    -2013.9226897015
 
 --------------------------------------------------------------
 
                    Orbital Energies (a.u.)
 --------------------------------------------------------------
 
 Alpha MOs
 -- Occupied --
******* -29.670 -26.225 -26.224 -26.219 -18.915 -18.861 -10.126
-10.122 -10.088 -10.076 -10.074 -10.065 -10.056 -10.054 -10.026
-10.025 -10.021 -10.011  -9.973  -9.973  -9.971  -9.970  -3.858
 -2.699  -2.696  -2.687  -1.216  -1.068  -0.993  -0.990  -0.935
 -0.923  -0.898  -0.862  -0.854  -0.843  -0.809  -0.800  -0.799
 -0.763  -0.730  -0.720  -0.713  -0.686  -0.677  -0.642  -0.633
 -0.626  -0.613  -0.606  -0.597  -0.595  -0.589  -0.580  -0.572
 -0.568  -0.563  -0.558  -0.555  -0.554  -0.549  -0.546  -0.536
 -0.534  -0.529  -0.526  -0.526  -0.525  -0.517  -0.509  -0.505
 -0.494  -0.492  -0.476  -0.460  -0.457  -0.452  -0.445  -0.436
 -0.425  -0.418
 -- Virtual --
 -0.408  -0.379  -0.288  -0.258  -0.257  -0.246  -0.168  -0.128
 -0.123  -0.073  -0.015  -0.004   0.009   0.036   0.045   0.056
  0.061   0.070   0.072   0.076   0.088   0.098   0.108   0.114
  0.118   0.126   0.129   0.135   0.140   0.144   0.151   0.167
  0.169   0.175   0.183   0.192   0.195   0.202   0.212   0.223
  0.230   0.234   0.238   0.243   0.255   0.264   0.268   0.315
  0.338   0.357
 
 Beta MOs
 -- Occupied --
******* -29.631 -26.192 -26.191 -26.190 -18.917 -18.871 -10.127
-10.122 -10.088 -10.074 -10.073 -10.064 -10.056 -10.053 -10.026
-10.025 -10.022 -10.011  -9.973  -9.973  -9.970  -9.970  -3.653
 -2.497  -2.487  -2.483  -1.219  -1.107  -0.990  -0.987  -0.933
 -0.921  -0.897  -0.861  -0.853  -0.843  -0.808  -0.800  -0.798
 -0.762  -0.729  -0.718  -0.712  -0.686  -0.679  -0.642  -0.632
 -0.625  -0.615  -0.603  -0.596  -0.594  -0.588  -0.579  -0.571
 -0.568  -0.562  -0.558  -0.555  -0.551  -0.548  -0.539  -0.532
 -0.524  -0.517  -0.508  -0.504  -0.493  -0.491  -0.481  -0.474
 -0.460  -0.457  -0.450  -0.439  -0.429  -0.421
 -- Virtual --
 -0.408  -0.327  -0.319  -0.319  -0.317  -0.314  -0.281  -0.261
 -0.253  -0.233  -0.164  -0.130  -0.120  -0.069  -0.014  -0.003
  0.010   0.040   0.046   0.058   0.063   0.071   0.073   0.076
  0.089   0.099   0.109   0.115   0.119   0.126   0.131   0.136
  0.141   0.146   0.152   0.168   0.170   0.175   0.183   0.194
  0.196   0.202   0.212   0.224   0.231   0.235   0.239   0.243
  0.255   0.264   0.270   0.316   0.343   0.358
 --------------------------------------------------------------
 
          Ground-State Mulliken Net Atomic Charges

     Atom                 Charge (a.u.)    Spin (a.u.)
  --------------------------------------------------------
      1 Fe                    0.619269       4.282425
      2 O                    -0.125211      -0.762995
      3 H                     0.085076       0.000447
      4 H                     0.124984       0.009114
      5 H                     0.124958       0.019154
      6 O                    -0.089209      -0.063006
      7 H                     0.084357       0.000494
      8 H                     0.085979       0.000703
      9 C                    -0.214314       0.011228
     10 C                    -0.232577      -0.008819
     11 H                     0.137607      -0.004031
     12 C                     0.082658       0.186403
     13 H                     0.119746      -0.001203
     14 H                     0.111613       0.000360
     15 H                     0.076937      -0.000621
     16 C                    -0.134904      -0.004502
     17 C                     0.038807       0.138158
     18 C                     0.014612       0.000813
     19 C                    -0.130378      -0.000886
     20 H                     0.134539       0.002682
     21 C                    -0.043347       0.096626
     22 C                     0.028935       0.002729
     23 H                     0.129797       0.012945
     24 C                    -0.020719       0.027016
     25 H                     0.121617       0.007077
     26 C                     0.014949      -0.040976
     27 C                    -0.131231       0.002132
     28 H                     0.104708      -0.000327
     29 H                     0.112683      -0.000598
     30 H                     0.159551      -0.004095
     31 C                    -0.031452       0.010070
     32 C                     0.064958       0.057612
     33 H                     0.138556       0.001049
     34 C                    -0.212523       0.021384
     35 H                     0.088279       0.000314
     36 H                     0.072867      -0.000830
     37 H                     0.111585       0.001248
     38 H                     0.135299      -0.000450
     39 H                     0.091319      -0.000357
     40 C                    -0.223167      -0.005247
     41 H                     0.127753       0.002850
     42 H                     0.120020      -0.000514
     43 H                     0.125016       0.004426
  --------------------------------------------------------
  Sum of atomic charges =     2.000000
  Sum of spin   charges =     4.000000

 -----------------------------------------------------------------
                    Cartesian Multipole Moments
 -----------------------------------------------------------------
    Charge (ESU x 10^10)
                 9.6064
    Dipole Moment (Debye)
         X      -7.1724      Y       2.4848      Z      -1.2627
       Tot       7.6949
    Quadrupole Moments (Debye-Ang)
        XX     -23.3312     XY      10.0120     YY     -63.6161
        XZ      -7.9691     YZ       3.0341     ZZ     -98.2638
    Octopole Moments (Debye-Ang^2)
       XXX    -265.9060    XXY     -76.2828    XYY     -29.3670
       YYY     160.1326    XXZ      35.1040    XYZ     -18.3720
       YYZ       9.2525    XZZ      -1.8746    YZZ       6.4857
       ZZZ     -13.2551
    Hexadecapole Moments (Debye-Ang^3)
      XXXX   -2764.4283   XXXY     377.3949   XXYY   -1098.7433
      XYYY     -13.8703   YYYY   -2061.4503   XXXZ    -360.2006
      XXYZ     -26.5532   XYYZ      32.9351   YYYZ      63.6535
      XXZZ    -886.2457   XYZZ      15.8828   YYZZ    -578.9091
      XZZZ      -8.6418   YZZZ       0.8525   ZZZZ   -1007.4541
 -----------------------------------------------------------------
 Calculating analytic gradient of the SCF energy
 Gradient of SCF Energy
            1           2           3           4           5           6
    1   0.0013715  -0.0018361  -0.0011997  -0.0024139  -0.0001760  -0.0047204
    2   0.1052071  -0.1226465  -0.0016565  -0.0008308  -0.0035212   0.0004485
    3  -0.0570874   0.0492428   0.0000285  -0.0001368  -0.0026299  -0.0090762
            7           8           9          10          11          12
    1   0.0041375  -0.0005500   0.0063515   0.0055041  -0.0008000  -0.0137483
    2   0.0007866  -0.0011950  -0.0053257  -0.0079266  -0.0051207  -0.0111864
    3  -0.0009691  -0.0011839  -0.0117498   0.0052415  -0.0032745   0.0194550
           13          14          15          16          17          18
    1  -0.0017827  -0.0018490   0.0024605  -0.0062615   0.0120961  -0.0109761
    2  -0.0047442   0.0013855   0.0012317  -0.0013343   0.0183286  -0.0164700
    3  -0.0034983   0.0003140   0.0005456   0.0047738  -0.0188580  -0.0212898
           19          20          21          22          23          24
    1  -0.0090657  -0.0000108   0.0067274  -0.0040535  -0.0001287   0.0169430
    2  -0.0038236   0.0057991  -0.0093376  -0.0027449   0.0024472  -0.0075335
    3  -0.0090818  -0.0066466  -0.0100645  -0.0010321   0.0022533  -0.0206920
           25          26          27          28          29          30
    1   0.0005435   0.0243202  -0.0040079  -0.0001179  -0.0029685   0.0058395
    2  -0.0013502   0.0024365   0.0126435   0.0029938  -0.0026680   0.0040086
    3   0.0036558   0.0371163   0.0036775   0.0006962  -0.0005311  -0.0007800
           31          32          33          34          35          36
    1  -0.0114177  -0.0169968  -0.0034808   0.0073883   0.0011016   0.0017847
    2   0.0093574   0.0106619   0.0058522   0.0139174   0.0011615  -0.0008648
    3   0.0156203   0.0134303   0.0056371   0.0056614   0.0013060  -0.0008710
           37          38          39          40          41          42
    1  -0.0020197   0.0015457  -0.0018269   0.0041767  -0.0006238   0.0032360
    2  -0.0007390   0.0042743   0.0002182   0.0090460  -0.0019369   0.0003141
    3  -0.0016429   0.0021915   0.0015230   0.0098146   0.0023586  -0.0012987
           43
    1  -0.0024956
    2   0.0004367
    3  -0.0021486
 Max gradient component =       1.226E-01
 RMS gradient           =       1.762E-02
 Gradient time:  CPU 27.04 s  wall 2.34 s
 Geometry Optimization Parameters
   NAtoms,    NIC,     NZ,  NCons,   NDum,   NFix, NCnnct, MaxDiis
       43     329       0       0       0       0       0       0

 Cartesian Hessian Update
 Hessian Updated using BFGS Update


** GEOMETRY OPTIMIZATION IN DELOCALIZED INTERNAL COORDINATES **
   Searching for a Minimum

   Optimization Cycle:   2

                       Coordinates (Angstroms)
     ATOM                X               Y               Z
      1  Fe       -0.3673097407    3.6730266616    0.3398000925
      2  O        -0.3763107317    2.1037275616    1.1214983681
      3  H         1.8216101875    0.0162201679    2.6935427508
      4  H         2.1919581888    2.0432606298   -2.0534766183
      5  H         4.1523237674    0.8177318738   -0.7724931162
      6  O        -0.9592246491    0.7777475219   -0.2784979595
      7  H         0.5116204690    1.4882449023   -1.7412899551
      8  H         3.9238835561   -0.4710960931    1.4925024910
      9  C         1.6161986999   -1.0546143865    2.5057422794
     10  C         1.5303512703    1.1540870944   -1.9947624109
     11  H        -5.4024908035    0.0629038300    1.6848655901
     12  C         2.1024312119    0.1600568543   -0.9879225549
     13  H        -3.1711097091    0.1469865959    0.5212769065
     14  H         2.2144872513   -1.6491516390    3.2217345931
     15  H         0.5520875397   -1.2483523936    2.7323240257
     16  C         3.6045074578   -0.0718602497   -1.1669424471
     17  C         1.3640080812   -0.4976229667   -0.0018729793
     18  C        -0.1377645567   -0.4254543238    0.1308388680
     19  C         3.5875363576   -1.3907363698    0.9693740131
     20  H        -0.5315009767   -0.8452844100    1.0739739028
     21  C        -5.6265710337   -0.8428077696    1.0931069252
     22  C         2.0205859092   -1.4591206703    1.0424787915
     23  H         1.5269287013    0.7123625264   -3.0152060938
     24  C        -3.4112693874   -0.7706974725   -0.0470065941
     25  H         3.8258140809   -0.0841842605   -2.2568923308
     26  C        -1.1297170216   -0.5089889569   -1.0442698630
     27  C         4.1169732424   -1.3573731158   -0.4789839221
     28  H         4.0045676442   -2.2472509480    1.5343699376
     29  H         5.2235706680   -1.3872149345   -0.4939053138
     30  H        -6.6122790858   -1.3109579206    1.2566465612
     31  C        -4.7199347068   -1.3628009471    0.1952761136
     32  C        -2.4423513329   -1.2321928486   -0.9334401291
     33  H        -0.6849757374   -0.4938747483   -2.0611234408
     34  C         1.5380735656   -2.9292533072    0.7704413061
     35  H         3.7674420760   -2.2472899094   -1.0406247339
     36  H         0.4345159450   -3.0063014742    0.8009330611
     37  H         1.9435222470   -3.6081578833    1.5446679265
     38  H        -4.9912293434   -2.2706423548   -0.3709320202
     39  H         1.8743107354   -3.2903516709   -0.2200414300
     40  C        -2.5691666598   -2.4549861961   -1.8301731048
     41  H        -2.4260361886   -2.1766128428   -2.8960980866
     42  H        -3.5497570333   -2.9513099954   -1.7389484509
     43  H        -1.7821709153   -3.2025592175   -1.5916390291
   Point Group: c1    Number of degrees of freedom:   123


   Energy is  -2013.922689701

 Hessian Updated using BFGS Update

111 Hessian modes will be used to form the next step
  Hessian Eigenvalues:
     0.002016    0.003154    0.003327    0.004665    0.004998    0.008295
     0.008538    0.008970    0.010839    0.011374    0.011552    0.012031
     0.015141    0.015956    0.015981    0.020560    0.021820    0.022387
     0.022952    0.027640    0.028701    0.028705    0.030368    0.030535
     0.032194    0.043473    0.047182    0.047942    0.049711    0.051392
     0.052632    0.053520    0.053875    0.055288    0.055520    0.056559
     0.060242    0.068861    0.069582    0.070265    0.073439    0.075345
     0.078042    0.078655    0.083916    0.084179    0.095651    0.097097
     0.098599    0.099890    0.105364    0.110329    0.121057    0.133859
     0.159994    0.160000    0.160258    0.160387    0.160700    0.188511
     0.220004    0.220062    0.229728    0.246276    0.249461    0.249772
     0.249957    0.249989    0.250000    0.258765    0.271838    0.278371
     0.280415    0.280978    0.285944    0.288488    0.299296    0.309178
     0.318304    0.323586    0.325395    0.328849    0.329152    0.329444
     0.329745    0.330148    0.330375    0.330736    0.331770    0.331911
     0.332258    0.332613    0.333244    0.333303    0.334146    0.335388
     0.335759    0.338426    0.339348    0.340812    0.342044    0.342374
     0.342625    0.342954    0.345098    0.345689    0.382246    0.427956
     0.517381    0.539138    0.885088

 Minimum Search - Taking Simple RFO Step
 Searching for Lamda that Minimizes Along All modes
 Value Taken    Lamda =  -0.11877290
 Calculated Step too Large.  Step scaled by  0.363251
 Step Taken.  Stepsize is  0.300000

                             Maximum     Tolerance    Cnvgd?
         Gradient           0.076381      0.000300      NO
         Displacement       0.160041      0.001200      NO
         Energy change     -0.046514      0.000001      NO


 New Cartesian Coordinates Obtained by Inverse Iteration

 Displacement from previous Coordinates is:  0.515889
 ----------------------------------------------------------------
             Standard Nuclear Orientation (Angstroms)
    I     Atom           X                Y                Z
 ----------------------------------------------------------------
    1      Fe     -0.3993625899     3.6211819433     0.4298705039
    2      O      -0.3966908055     2.1636543550     1.1352616349
    3      H       1.8496209783     0.0315002290     2.7197068072
    4      H       2.1857145344     2.0467725800    -2.0902258697
    5      H       4.1799687625     0.8208241399    -0.8013909375
    6      O      -0.9625084740     0.7926036396    -0.2678396578
    7      H       0.5041349099     1.4837968562    -1.7506645990
    8      H       3.9654697126    -0.4672781956     1.4945722092
    9      C       1.6424232640    -1.0422957649     2.5395147833
   10      C       1.5255987692     1.1548306543    -2.0168974406
   11      H      -5.4406549774     0.0632780485     1.6959329325
   12      C       2.1197480102     0.1632657704    -1.0032077978
   13      H      -3.2003019801     0.1463384969     0.5314773583
   14      H       2.2479256432    -1.6354817397     3.2529435560
   15      H       0.5767269987    -1.2373780431     2.7699287745
   16      C       3.6302188637    -0.0757032179    -1.1885548396
   17      C       1.3758306157    -0.4984743831     0.0111936071
   18      C      -0.1358349527    -0.4149585605     0.1457662596
   19      C       3.6252903499    -1.3913033914     0.9778675926
   20      H      -0.5297883000    -0.8383481836     1.0965760147
   21      C      -5.6691893640    -0.8410454570     1.0920653431
   22      C       2.0443385537    -1.4600147658     1.0636370441
   23      H       1.5123615112     0.6998122728    -3.0348871860
   24      C      -3.4432987699    -0.7693493239    -0.0509935076
   25      H       3.8443064177    -0.0945647059    -2.2835339611
   26      C      -1.1417706037    -0.5014690548    -1.0581469740
   27      C       4.1483071946    -1.3674524349    -0.4861117016
   28      H       4.0470702501    -2.2475997839     1.5436601729
   29      H       5.2578518978    -1.3948924064    -0.5069829845
   30      H      -6.6627692624    -1.3109916141     1.2512404982
   31      C      -4.7558024407    -1.3654841006     0.1781285703
   32      C      -2.4616695070    -1.2326081578    -0.9572183417
   33      H      -0.6928813314    -0.4882543583    -2.0806495267
   34      C       1.5547311801    -2.9462051609     0.7992481974
   35      H       3.7935631341    -2.2619125459    -1.0412478765
   36      H       0.4495056527    -3.0212712381     0.8385666776
   37      H       1.9697354445    -3.6154049825     1.5789560668
   38      H      -5.0314142921    -2.2707421525    -0.4001546071
   39      H       1.8876157703    -3.3128451422    -0.1926218331
   40      C      -2.5997563335    -2.4563001283    -1.8721483004
   41      H      -2.4574770950    -2.1658978831    -2.9380688982
   42      H      -3.5866648786    -2.9468338755    -1.7786636020
   43      H      -1.8120832210    -3.2082442906    -1.6370522420
 ----------------------------------------------------------------
 Molecular Point Group                 C1    NOp =  1
 Largest Abelian Subgroup              C1    NOp =  1
 Nuclear Repulsion Energy =  1738.4180151551 hartrees
 There are       82 alpha and       78 beta electrons
 Applying Cartesian multipole field
    Component          Value
    ---------          -----
     (2,0,0)        1.00000E-12
     (0,2,0)        2.00000E-11
     (0,0,2)       -3.00000E-11
 Nucleus-field energy     =     0.0000000249 hartrees
 Requested basis set is STO-3G
 There are 65 shells and 132 basis functions
 A cutoff of  1.0D-12 yielded   1653 shell pairs
 There are      7385 function pairs (      7473 Cartesian)
 Smallest overlap matrix eigenvalue = 2.08E-01
 Guess MOs from SCF MO coefficient file

 -----------------------------------------------------------------------
  General SCF calculation program by
  Eric Jon Sundstrom, Paul Horn, Yuezhi Mao, Dmitri Zuev, Alec White,
  David Stuck, Shaama M.S., Shane Yost, Joonho Lee, David Small,
  Daniel Levine, Susi Lehtola, Hugh Burton, Evgeny Epifanovsky
 -----------------------------------------------------------------------
 Exchange:  B88      Correlation:  LYP
 Using SG-1 standard quadrature grid
 using 12 threads for integral computing
 -------------------------------------------------------
 OpenMP Integral computing Module                
 Release: version 1.0, May 2013, Q-Chem Inc. Pittsburgh 
 -------------------------------------------------------
 -------------------------------------------------------
 OpenMP BLAS3 based DFT computing Module                
 Release: version 1.0, May 2013, Q-Chem Inc. Pittsburgh 
 -------------------------------------------------------
 A unrestricted SCF calculation will be
 performed using DIIS, GDM
 SCF converges when RMS gradient is below 1.0e-08
 ---------------------------------------
  Cycle       Energy         DIIS error
 ---------------------------------------
    1   -2013.9492720628      7.11e-04  
    2   -2013.8858181598      2.27e-03  Done DIIS. Switching to GDM
 ---------------------------------------
  Cycle       Energy        RMS Gradient
 ---------------------------------------
    1   -2013.8858181598      5.60e-01   Descent step
    2   -2013.3647509198      1.54e+00  Line search: overstep
    3   -2013.9371950721      1.83e-01   Normal BFGS step
    4   -2013.8653016147      3.20e-01  Line search: overstep
    5   -2013.9555089494      1.20e-01   Normal BFGS step
    6   -2013.9409965377      2.46e-01  Line search: overstep
    7   -2013.9618461308      2.34e-02   Normal BFGS step
    8   -2013.9564961669      1.33e-01  Line search: overstep
    9   -2013.9634077897      2.95e-02   Normal BFGS step
   10   -2013.9640286194      2.92e-02   Normal BFGS step
   11   -2013.9642552736      1.72e-02   Normal BFGS step
   12   -2013.9647610577      1.62e-02   Normal BFGS step
   13   -2013.9649267753      7.64e-03   Normal BFGS step
   14   -2013.9649643572      8.49e-03   Normal BFGS step
   15   -2013.9650145573      4.75e-03   Normal BFGS step
   16   -2013.9650608458      1.51e-03   Normal BFGS step
   17   -2013.9650720478      1.75e-03   Normal BFGS step
   18   -2013.9650797408      8.03e-04   Normal BFGS step
   19   -2013.9650808174      8.28e-04   Normal BFGS step
   20   -2013.9650827671      3.72e-04   Normal BFGS step
   21   -2013.9650831493      2.52e-04   Normal BFGS step
   22   -2013.9650835820      1.79e-04   Normal BFGS step
   23   -2013.9650837508      1.21e-04   Normal BFGS step
   24   -2013.9650837879      1.67e-04   Normal BFGS step
   25   -2013.9650837715      2.32e-04   Normal BFGS step
   26   -2013.9650837579      2.36e-04   Normal BFGS step
   27   -2013.9650838110      1.90e-04   Normal BFGS step
   28   -2013.9650838694      1.64e-04   Normal BFGS step
   29   -2013.9650838369      2.59e-04  Line search: overstep
   30   -2013.9650838821      7.36e-05   Normal BFGS step
   31   -2013.9650838836      1.35e-04   Normal BFGS step
   32   -2013.9650838895      1.04e-04   Normal BFGS step
   33   -2013.9650838906      5.44e-05   Normal BFGS step
   34   -2013.9650838940      3.54e-05   Normal BFGS step
   35   -2013.9650838954      2.76e-05   Normal BFGS step
   36   -2013.9650838969      1.80e-05   Normal BFGS step
   37   -2013.9650838974      1.08e-05   Normal BFGS step
   38   -2013.9650838978      8.32e-06   Normal BFGS step
   39   -2013.9650838978      9.28e-06   Normal BFGS step
   40   -2013.9650838981      2.72e-06   Normal BFGS step
   41   -2013.9650838981      2.95e-06   Normal BFGS step
   42   -2013.9650838981      1.41e-06   Normal BFGS step
   43   -2013.9650838981      1.59e-06   Normal BFGS step
   44   -2013.9650838981      1.32e-06   Normal BFGS step
   45   -2013.9650838981      4.03e-06   Normal BFGS step
   46   -2013.9650838981      6.71e-07   Normal BFGS step
   47   -2013.9650838981      1.67e-06   Normal BFGS step
   48   -2013.9650838981      2.79e-07   Normal BFGS step
   49   -2013.9650838981      1.08e-06   Normal BFGS step
   50   -2013.9650838981      2.17e-07   Normal BFGS step
   51   -2013.9650838981      8.69e-07   Normal BFGS step
   52   -2013.9650838981      1.70e-07   Normal BFGS step
   53   -2013.9650838981      2.17e-07   Normal BFGS step
   54   -2013.9650838981      6.27e-08   Normal BFGS step
   55   -2013.9650838981      1.43e-07   Normal BFGS step
   56   -2013.9650838981      1.82e-08   Normal BFGS step
   57   -2013.9650838981      3.37e-08   Normal BFGS step
   58   -2013.9650838981      8.35e-09  Convergence criterion met
 ---------------------------------------
 SCF time:   CPU 488.74s  wall 41.00s 
<S^2> =          6.512013953
 SCF   energy in the final basis set =    -2013.9650838981
 Total energy in the final basis set =    -2013.9650838981
 
 --------------------------------------------------------------
 
                    Orbital Energies (a.u.)
 --------------------------------------------------------------
 
 Alpha MOs
 -- Occupied --
******* -29.658 -26.213 -26.211 -26.207 -18.917 -18.856 -10.125
-10.123 -10.091 -10.083 -10.078 -10.072 -10.060 -10.059 -10.029
-10.027 -10.025 -10.015  -9.977  -9.977  -9.973  -9.973  -3.839
 -2.681  -2.677  -2.668  -1.207  -1.087  -0.990  -0.987  -0.933
 -0.921  -0.896  -0.860  -0.853  -0.843  -0.808  -0.801  -0.799
 -0.763  -0.729  -0.720  -0.713  -0.684  -0.677  -0.642  -0.633
 -0.626  -0.613  -0.606  -0.597  -0.595  -0.588  -0.580  -0.575
 -0.569  -0.564  -0.561  -0.558  -0.556  -0.552  -0.549  -0.540
 -0.536  -0.528  -0.522  -0.518  -0.508  -0.507  -0.507  -0.506
 -0.496  -0.494  -0.465  -0.461  -0.456  -0.451  -0.440  -0.436
 -0.425  -0.418
 -- Virtual --
 -0.408  -0.355  -0.293  -0.258  -0.236  -0.234  -0.175  -0.138
 -0.127  -0.044  -0.027  -0.010   0.001   0.020   0.030   0.045
  0.048   0.060   0.063   0.066   0.075   0.087   0.097   0.106
  0.108   0.117   0.124   0.126   0.131   0.136   0.143   0.160
  0.161   0.169   0.176   0.184   0.188   0.195   0.204   0.213
  0.218   0.223   0.224   0.230   0.243   0.255   0.256   0.298
  0.309   0.334
 
 Beta MOs
 -- Occupied --
******* -29.622 -26.183 -26.182 -26.180 -18.918 -18.863 -10.125
-10.124 -10.091 -10.081 -10.078 -10.070 -10.060 -10.059 -10.029
-10.027 -10.025 -10.015  -9.977  -9.977  -9.973  -9.973  -3.649
 -2.502  -2.480  -2.474  -1.209  -1.109  -0.987  -0.984  -0.933
 -0.919  -0.896  -0.860  -0.853  -0.843  -0.807  -0.800  -0.799
 -0.762  -0.729  -0.719  -0.713  -0.683  -0.677  -0.642  -0.632
 -0.624  -0.613  -0.602  -0.596  -0.594  -0.588  -0.579  -0.572
 -0.568  -0.562  -0.558  -0.556  -0.552  -0.548  -0.541  -0.535
 -0.526  -0.519  -0.510  -0.507  -0.495  -0.493  -0.492  -0.476
 -0.463  -0.460  -0.452  -0.433  -0.429  -0.422
 -- Virtual --
 -0.408  -0.312  -0.310  -0.309  -0.309  -0.305  -0.290  -0.244
 -0.228  -0.223  -0.174  -0.139  -0.124  -0.035  -0.019  -0.009
  0.002   0.025   0.030   0.046   0.049   0.060   0.065   0.067
  0.076   0.087   0.098   0.107   0.109   0.118   0.126   0.127
  0.133   0.136   0.144   0.161   0.162   0.169   0.176   0.185
  0.189   0.196   0.204   0.214   0.218   0.223   0.225   0.230
  0.244   0.255   0.257   0.298   0.314   0.335
 --------------------------------------------------------------
 
          Ground-State Mulliken Net Atomic Charges

     Atom                 Charge (a.u.)    Spin (a.u.)
  --------------------------------------------------------
      1 Fe                    0.590293       4.114916
      2 O                    -0.177648      -0.483129
      3 H                     0.087224       0.000451
      4 H                     0.127816       0.009260
      5 H                     0.127357       0.019751
      6 O                    -0.076212      -0.060586
      7 H                     0.088630       0.000412
      8 H                     0.087309       0.000717
      9 C                    -0.212889       0.012329
     10 C                    -0.230046      -0.009231
     11 H                     0.139725      -0.000714
     12 C                     0.090660       0.200590
     13 H                     0.122140      -0.000197
     14 H                     0.112024       0.000393
     15 H                     0.077870      -0.000688
     16 C                    -0.133144      -0.005496
     17 C                     0.043951       0.148555
     18 C                     0.017172      -0.010660
     19 C                    -0.129599      -0.001290
     20 H                     0.134402       0.002983
     21 C                    -0.036136       0.016960
     22 C                     0.029753       0.002460
     23 H                     0.129550       0.012770
     24 C                    -0.016244       0.004465
     25 H                     0.122925       0.006995
     26 C                     0.012141      -0.011755
     27 C                    -0.129295       0.002166
     28 H                     0.105452      -0.000392
     29 H                     0.113359      -0.000711
     30 H                     0.160530      -0.000707
     31 C                    -0.029623       0.001826
     32 C                     0.067397       0.007772
     33 H                     0.138284      -0.001633
     34 C                    -0.210803       0.022929
     35 H                     0.088609       0.000288
     36 H                     0.074026      -0.000918
     37 H                     0.112412       0.001305
     38 H                     0.136125      -0.000081
     39 H                     0.091838      -0.000351
     40 C                    -0.219919      -0.002387
     41 H                     0.128038      -0.000057
     42 H                     0.119696      -0.000303
     43 H                     0.124851       0.000992
  --------------------------------------------------------
  Sum of atomic charges =     2.000000
  Sum of spin   charges =     4.000000

 -----------------------------------------------------------------
                    Cartesian Multipole Moments
 -----------------------------------------------------------------
    Charge (ESU x 10^10)
                 9.6064
    Dipole Moment (Debye)
         X      -7.2531      Y       0.9938      Z      -1.3802
       Tot       7.4498
    Quadrupole Moments (Debye-Ang)
        XX     -17.9308     XY      10.6257     YY     -67.9762
        XZ      -8.3589     YZ       2.8591     ZZ     -97.3087
    Octopole Moments (Debye-Ang^2)
       XXX    -279.0241    XXY     -81.3337    XYY     -27.8649
       YYY     140.0799    XXZ      35.0190    XYZ     -19.9096
       YYZ       7.3162    XZZ      -1.1489    YZZ       5.1338
       ZZZ     -18.2220
    Hexadecapole Moments (Debye-Ang^3)
      XXXX   -2677.8715   XXXY     402.9854   XXYY   -1101.1816
      XYYY      -2.7507   YYYY   -2113.8433   XXXZ    -384.6524
      XXYZ     -32.4257   XYYZ      31.9595   YYYZ      45.3195
      XXZZ    -893.4636   XYZZ      19.9407   YYZZ    -581.1787
      XZZZ     -12.7338   YZZZ     -17.4098   ZZZZ   -1033.9886
 -----------------------------------------------------------------
 Calculating analytic gradient of the SCF energy
 Gradient of SCF Energy
            1           2           3           4           5           6
    1   0.0005372  -0.0028815  -0.0009009  -0.0013172   0.0008783  -0.0027820
    2   0.1176268  -0.1367773  -0.0003151   0.0002791  -0.0014059   0.0168508
    3  -0.0607956   0.0499146   0.0005816  -0.0002930  -0.0019448   0.0006690
            7           8           9          10          11          12
    1   0.0007987   0.0000274   0.0047334   0.0041987  -0.0003964  -0.0074911
    2   0.0012500  -0.0003035  -0.0032750  -0.0036689  -0.0014849  -0.0056504
    3  -0.0006850  -0.0004128  -0.0057467   0.0020280  -0.0006310   0.0115466
           13          14          15          16          17          18
    1  -0.0011941  -0.0011477   0.0006892  -0.0030288   0.0078722  -0.0067948
    2  -0.0009090   0.0008667   0.0008796   0.0011330   0.0124184  -0.0161210
    3  -0.0009253   0.0008874   0.0010458   0.0018325  -0.0103037  -0.0141194
           19          20          21          22          23          24
    1  -0.0044776  -0.0011598   0.0007224  -0.0039631  -0.0003809   0.0079191
    2  -0.0039918   0.0038184  -0.0037571  -0.0024681   0.0016847  -0.0021521
    3  -0.0038431  -0.0017431  -0.0026485  -0.0008092   0.0003469  -0.0116064
           25          26          27          28          29          30
    1   0.0009209   0.0198497  -0.0004704   0.0006844  -0.0008739   0.0013821
    2  -0.0010829  -0.0021832   0.0076203   0.0021029  -0.0026788   0.0018391
    3   0.0012928   0.0245875   0.0013388   0.0013871  -0.0005811   0.0000463
           31          32          33          34          35          36
    1  -0.0049553  -0.0116948  -0.0028390   0.0049274   0.0007253   0.0004889
    2   0.0031887   0.0045045   0.0052797   0.0073388   0.0000226  -0.0010783
    3   0.0072392   0.0049066   0.0001363   0.0041034   0.0004569  -0.0008430
           37          38          39          40          41          42
    1  -0.0014310   0.0009460  -0.0013987   0.0034602  -0.0002798   0.0010289
    2  -0.0011693   0.0009842  -0.0005106   0.0038728  -0.0012734  -0.0006568
    3  -0.0008273   0.0000403   0.0002368   0.0063086   0.0002700  -0.0009563
           43
    1  -0.0009315
    2  -0.0006475
    3  -0.0014878
 Max gradient component =       1.368E-01
 RMS gradient           =       1.807E-02
 Gradient time:  CPU 26.54 s  wall 2.31 s
 Geometry Optimization Parameters
   NAtoms,    NIC,     NZ,  NCons,   NDum,   NFix, NCnnct, MaxDiis
       43     329       0       0       0       0       0       0

 Cartesian Hessian Update
 Hessian Updated using BFGS Update


** GEOMETRY OPTIMIZATION IN DELOCALIZED INTERNAL COORDINATES **
   Searching for a Minimum

   Optimization Cycle:   3

                       Coordinates (Angstroms)
     ATOM                X               Y               Z
      1  Fe       -0.3993625899    3.6211819433    0.4298705039
      2  O        -0.3966908055    2.1636543550    1.1352616349
      3  H         1.8496209783    0.0315002290    2.7197068072
      4  H         2.1857145344    2.0467725800   -2.0902258697
      5  H         4.1799687625    0.8208241399   -0.8013909375
      6  O        -0.9625084740    0.7926036396   -0.2678396578
      7  H         0.5041349099    1.4837968562   -1.7506645990
      8  H         3.9654697126   -0.4672781956    1.4945722092
      9  C         1.6424232640   -1.0422957649    2.5395147833
     10  C         1.5255987692    1.1548306543   -2.0168974406
     11  H        -5.4406549774    0.0632780485    1.6959329325
     12  C         2.1197480102    0.1632657704   -1.0032077978
     13  H        -3.2003019801    0.1463384969    0.5314773583
     14  H         2.2479256432   -1.6354817397    3.2529435560
     15  H         0.5767269987   -1.2373780431    2.7699287745
     16  C         3.6302188637   -0.0757032179   -1.1885548396
     17  C         1.3758306157   -0.4984743831    0.0111936071
     18  C        -0.1358349527   -0.4149585605    0.1457662596
     19  C         3.6252903499   -1.3913033914    0.9778675926
     20  H        -0.5297883000   -0.8383481836    1.0965760147
     21  C        -5.6691893640   -0.8410454570    1.0920653431
     22  C         2.0443385537   -1.4600147658    1.0636370441
     23  H         1.5123615112    0.6998122728   -3.0348871860
     24  C        -3.4432987699   -0.7693493239   -0.0509935076
     25  H         3.8443064177   -0.0945647059   -2.2835339611
     26  C        -1.1417706037   -0.5014690548   -1.0581469740
     27  C         4.1483071946   -1.3674524349   -0.4861117016
     28  H         4.0470702501   -2.2475997839    1.5436601729
     29  H         5.2578518978   -1.3948924064   -0.5069829845
     30  H        -6.6627692624   -1.3109916141    1.2512404982
     31  C        -4.7558024407   -1.3654841006    0.1781285703
     32  C        -2.4616695070   -1.2326081578   -0.9572183417
     33  H        -0.6928813314   -0.4882543583   -2.0806495267
     34  C         1.5547311801   -2.9462051609    0.7992481974
     35  H         3.7935631341   -2.2619125459   -1.0412478765
     36  H         0.4495056527   -3.0212712381    0.8385666776
     37  H         1.9697354445   -3.6154049825    1.5789560668
     38  H        -5.0314142921   -2.2707421525   -0.4001546071
     39  H         1.8876157703   -3.3128451422   -0.1926218331
     40  C        -2.5997563335   -2.4563001283   -1.8721483004
     41  H        -2.4574770950   -2.1658978831   -2.9380688982
     42  H        -3.5866648786   -2.9468338755   -1.7786636020
     43  H        -1.8120832210   -3.2082442906   -1.6370522420
   Point Group: c1    Number of degrees of freedom:   123


   Energy is  -2013.965083898

 Hessian Updated using BFGS Update

112 Hessian modes will be used to form the next step
  Hessian Eigenvalues:
     0.002016    0.003154    0.003327    0.004667    0.004997    0.008295
     0.008537    0.008970    0.010823    0.011290    0.011447    0.012011
     0.015093    0.015830    0.015985    0.017875    0.020845    0.021827
     0.022388    0.022973    0.027680    0.028705    0.028706    0.030383
     0.031088    0.032204    0.043656    0.047815    0.047978    0.049729
     0.051975    0.052672    0.053522    0.054384    0.055351    0.056539
     0.059988    0.068836    0.069544    0.070260    0.073439    0.075342
     0.078024    0.078656    0.083913    0.084180    0.096714    0.097194
     0.098620    0.098839    0.105371    0.110323    0.121059    0.133868
     0.159995    0.160000    0.160035    0.160224    0.160460    0.160712
     0.188515    0.220008    0.220216    0.229735    0.246274    0.249671
     0.249956    0.249985    0.249998    0.253220    0.261513    0.271841
     0.278424    0.280450    0.280985    0.285910    0.288498    0.299364
     0.309126    0.318280    0.323578    0.325404    0.328851    0.329157
     0.329444    0.329746    0.330148    0.330373    0.330736    0.331776
     0.331916    0.332262    0.332614    0.333244    0.333303    0.334146
     0.335664    0.336489    0.338433    0.339355    0.340905    0.342062
     0.342401    0.342653    0.343224    0.345125    0.345695    0.382841
     0.434001    0.517593    0.539515    1.638587

 Minimum Search - Taking Simple RFO Step
 Searching for Lamda that Minimizes Along All modes
 Value Taken    Lamda =  -0.12800309
 Calculated Step too Large.  Step scaled by  0.321258
 Step Taken.  Stepsize is  0.300000

                             Maximum     Tolerance    Cnvgd?
         Gradient           0.080458      0.000300      NO
         Displacement       0.165839      0.001200      NO
         Energy change     -0.042394      0.000001      NO


 New Cartesian Coordinates Obtained by Inverse Iteration

 Displacement from previous Coordinates is:  0.414002
 ----------------------------------------------------------------
             Standard Nuclear Orientation (Angstroms)
    I     Atom           X                Y                Z
 ----------------------------------------------------------------
    1      Fe     -0.4355193375     3.5555167321     0.5085767600
    2      O      -0.4189173320     2.2234204748     1.1457198481
    3      H       1.8701821171     0.0442361179     2.7390371665
    4      H       2.1861931058     2.0475678989    -2.1218790746
    5      H       4.2021600272     0.8216336425    -0.8236200963
    6      O      -0.9665475964     0.8033379011    -0.2601542918
    7      H       0.5033938228     1.4800005048    -1.7621293406
    8      H       3.9960173148    -0.4646612707     1.4960231187
    9      C       1.6609454127    -1.0313641344     2.5642881963
   10      C       1.5263813484     1.1544707675    -2.0370845115
   11      H      -5.4660565437     0.0612638086     1.7068899853
   12      C       2.1347836355     0.1662963972    -1.0167321473
   13      H      -3.2210585166     0.1446857585     0.5407478769
   14      H       2.2712240370    -1.6244556497     3.2753490248
   15      H       0.5940205970    -1.2270002709     2.7967265009
   16      C       3.6505519107    -0.0798201017    -1.2049254142
   17      C       1.3846057355    -0.4977978149     0.0212624679
[...]
    3   -2014.0617727345      4.43e-03   Normal BFGS step
    4   -2014.0615405036      1.99e-02  Line search: overstep
    5   -2014.0617875103      2.44e-03   Normal BFGS step
    6   -2014.0617844564      2.89e-03  Line search: overstep
    7   -2014.0617973878      8.33e-04   Normal BFGS step
    8   -2014.0617965113      1.29e-03  Line search: overstep
    9   -2014.0618006683      6.18e-04   Normal BFGS step
   10   -2014.0618005322      1.03e-03  Line search: overstep
   11   -2014.0618016646      4.38e-04   Normal BFGS step
   12   -2014.0618018653      2.15e-04   Normal BFGS step
   13   -2014.0618018900      2.35e-04   Normal BFGS step
   14   -2014.0618020188      1.03e-04   Normal BFGS step
   15   -2014.0618020117      1.55e-04   Normal BFGS step
   16   -2014.0618020421      6.19e-05   Normal BFGS step
   17   -2014.0618020427      4.08e-05   Normal BFGS step
   18   -2014.0618020517      1.57e-05   Normal BFGS step
   19   -2014.0618020507      2.74e-05   Normal BFGS step
   20   -2014.0618020526      4.92e-06   Normal BFGS step
   21   -2014.0618020526      6.64e-06   Normal BFGS step
   22   -2014.0618020528      2.07e-06   Normal BFGS step
   23   -2014.0618020528      2.07e-06   Normal BFGS step
   24   -2014.0618020528      2.67e-07   Normal BFGS step
   25   -2014.0618020528      5.34e-07   Normal BFGS step
   26   -2014.0618020528      1.69e-07   Normal BFGS step
   27   -2014.0618020528      2.74e-07   Normal BFGS step
   28   -2014.0618020528      4.94e-08   Normal BFGS step
   29   -2014.0618020528      3.11e-07   Normal BFGS step
   30   -2014.0618020528      2.11e-08   Normal BFGS step
   31   -2014.0618020528      4.17e-08   Normal BFGS step
   32   -2014.0618020528      1.90e-08   Normal BFGS step
  /scratch/qcdevops/jenkins/workspace/build_qchem_linux_distrib/tags/qc511/qchem/libgscf/libgscf/opt/gdm.C::WARNING energy changes are now smaller than effective accuracy.
  /scratch/qcdevops/jenkins/workspace/build_qchem_linux_distrib/tags/qc511/qchem/libgscf/libgscf/opt/gdm.C::        calculation will continue, but THRESH should be increased
  /scratch/qcdevops/jenkins/workspace/build_qchem_linux_distrib/tags/qc511/qchem/libgscf/libgscf/opt/gdm.C::        or SCF_CONVERGENCE decreased. 
  /scratch/qcdevops/jenkins/workspace/build_qchem_linux_distrib/tags/qc511/qchem/libgscf/libgscf/opt/gdm.C::        effective_thresh = 1.53e-08
   33   -2014.0618020528      5.37e-08   Normal BFGS step
   34   -2014.0618020528      6.20e-10  Convergence criterion met
 ---------------------------------------
 SCF time:   CPU 296.46s  wall 24.00s 
<S^2> =          6.105413664
 SCF   energy in the final basis set =    -2014.0618020528
 Total energy in the final basis set =    -2014.0618020528
 
 --------------------------------------------------------------
 
                    Orbital Energies (a.u.)
 --------------------------------------------------------------
 
 Alpha MOs
 -- Occupied --
******* -29.681 -26.240 -26.231 -26.230 -18.994 -18.926 -10.184
-10.165 -10.102 -10.083 -10.082 -10.068 -10.063 -10.058 -10.039
-10.035 -10.033 -10.016  -9.982  -9.981  -9.981  -9.980  -3.850
 -2.701  -2.683  -2.679  -1.269  -1.156  -1.015  -0.998  -0.959
 -0.932  -0.919  -0.889  -0.865  -0.861  -0.830  -0.808  -0.804
 -0.792  -0.763  -0.736  -0.725  -0.714  -0.703  -0.674  -0.656
 -0.647  -0.643  -0.633  -0.625  -0.608  -0.607  -0.604  -0.602
 -0.599  -0.589  -0.588  -0.583  -0.579  -0.573  -0.569  -0.562
 -0.559  -0.555  -0.548  -0.535  -0.528  -0.521  -0.512  -0.510
 -0.504  -0.500  -0.498  -0.467  -0.466  -0.457  -0.450  -0.444
 -0.431  -0.424
 -- Virtual --
 -0.387  -0.330  -0.309  -0.265  -0.236  -0.218  -0.200  -0.178
 -0.094  -0.061  -0.029  -0.023  -0.011   0.002   0.012   0.027
  0.039   0.046   0.055   0.057   0.063   0.077   0.083   0.088
  0.100   0.111   0.118   0.121   0.124   0.127   0.131   0.148
  0.150   0.163   0.170   0.179   0.179   0.187   0.195   0.203
  0.208   0.214   0.215   0.220   0.232   0.240   0.253   0.287
  0.306   0.330
 
 Beta MOs
 -- Occupied --
******* -29.653 -26.219 -26.211 -26.204 -18.994 -18.928 -10.184
-10.165 -10.101 -10.083 -10.081 -10.067 -10.063 -10.055 -10.039
-10.035 -10.033 -10.016  -9.982  -9.981  -9.981  -9.980  -3.703
 -2.578  -2.538  -2.508  -1.266  -1.154  -1.011  -0.994  -0.955
 -0.928  -0.917  -0.886  -0.863  -0.860  -0.828  -0.807  -0.803
 -0.788  -0.760  -0.734  -0.723  -0.711  -0.700  -0.667  -0.654
 -0.639  -0.638  -0.631  -0.610  -0.604  -0.599  -0.598  -0.591
 -0.587  -0.583  -0.575  -0.572  -0.572  -0.565  -0.561  -0.559
 -0.557  -0.547  -0.544  -0.533  -0.528  -0.512  -0.511  -0.503
 -0.497  -0.466  -0.465  -0.456  -0.433  -0.423
 -- Virtual --
 -0.416  -0.355  -0.348  -0.341  -0.314  -0.312  -0.291  -0.243
 -0.223  -0.203  -0.189  -0.166  -0.084  -0.051  -0.027  -0.021
 -0.006   0.011   0.020   0.033   0.041   0.048   0.057   0.058
  0.064   0.079   0.086   0.092   0.101   0.112   0.119   0.123
  0.126   0.128   0.132   0.149   0.151   0.164   0.171   0.180
  0.180   0.187   0.196   0.205   0.209   0.215   0.217   0.220
  0.233   0.241   0.254   0.290   0.309   0.333
 --------------------------------------------------------------
 
          Ground-State Mulliken Net Atomic Charges

     Atom                 Charge (a.u.)    Spin (a.u.)
  --------------------------------------------------------
      1 Fe                    0.726016       3.246479
      2 O                    -0.172267      -0.095212
      3 H                     0.085918       0.000445
      4 H                     0.132592       0.005689
      5 H                     0.124530       0.011256
      6 O                    -0.226365       0.045463
      7 H                     0.079534       0.000704
      8 H                     0.090680       0.000567
      9 C                    -0.217984       0.005076
     10 C                    -0.226759      -0.004779
     11 H                     0.135289      -0.009952
     12 C                     0.081973       0.116359
     13 H                     0.105051      -0.002022
     14 H                     0.114316       0.001102
     15 H                     0.073331       0.000087
     16 C                    -0.131747       0.002236
     17 C                     0.008773       0.118453
     18 C                     0.035760      -0.000872
     19 C                    -0.126725       0.008561
     20 H                     0.149866       0.001858
     21 C                    -0.042858       0.239474
     22 C                     0.033006       0.009500
     23 H                     0.130142       0.006300
     24 C                    -0.030033       0.046230
     25 H                     0.119569       0.002699
     26 C                     0.060481       0.010291
     27 C                    -0.126848       0.006244
     28 H                     0.106413       0.001685
     29 H                     0.114659       0.002009
     30 H                     0.158269      -0.010141
     31 C                    -0.028176       0.042573
     32 C                     0.050226       0.159067
     33 H                     0.162809       0.003924
     34 C                    -0.212108       0.017285
     35 H                     0.092912      -0.000031
     36 H                     0.070334       0.000282
     37 H                     0.111630       0.000636
     38 H                     0.135740      -0.001592
     39 H                     0.091366      -0.000617
     40 C                    -0.215840      -0.004487
     41 H                     0.127901       0.007863
     42 H                     0.125773       0.000653
     43 H                     0.122850       0.008657
  --------------------------------------------------------
  Sum of atomic charges =     2.000000
  Sum of spin   charges =     4.000000

 -----------------------------------------------------------------
                    Cartesian Multipole Moments
 -----------------------------------------------------------------
    Charge (ESU x 10^10)
                 9.6064
    Dipole Moment (Debye)
         X      -7.8061      Y      -1.9987      Z      -1.5334
       Tot       8.2025
    Quadrupole Moments (Debye-Ang)
        XX     -18.2252     XY       7.4856     YY     -90.2665
        XZ      -9.8497     YZ       0.3701     ZZ     -96.6097
    Octopole Moments (Debye-Ang^2)
       XXX    -230.6802    XXY     -60.0847    XYY     -11.4480
       YYY      81.2214    XXZ      43.0574    XYZ     -19.7125
       YYZ      -2.2188    XZZ       6.1071    YZZ      16.6624
       ZZZ     -18.8483
    Hexadecapole Moments (Debye-Ang^3)
      XXXX   -2918.7349   XXXY     464.1460   XXYY   -1039.2955
      XYYY     119.7864   YYYY   -1923.1608   XXXZ    -354.0734
      XXYZ     -23.5630   XYYZ      49.3017   YYYZ      17.9688
      XXZZ    -914.2994   XYZZ      53.3934   YYZZ    -498.6643
      XZZZ      29.3088   YZZZ       9.9928   ZZZZ   -1058.0314
 -----------------------------------------------------------------
 Calculating analytic gradient of the SCF energy
 Gradient of SCF Energy
            1           2           3           4           5           6
    1   0.0001777   0.0015675  -0.0003820  -0.0003896  -0.0000311  -0.0021630
    2   0.0015316  -0.0026767   0.0000077   0.0009314   0.0000178   0.0037152
    3   0.0014092  -0.0018286  -0.0000391  -0.0009142   0.0011243   0.0011713
            7           8           9          10          11          12
    1  -0.0008987  -0.0000081   0.0000316   0.0000875  -0.0002728   0.0000254
    2  -0.0001093   0.0005887  -0.0003686  -0.0006651  -0.0003381  -0.0010854
    3  -0.0005521  -0.0004012   0.0007885  -0.0003961  -0.0013201   0.0016218
           13          14          15          16          17          18
    1  -0.0002360   0.0003894   0.0002039  -0.0005826  -0.0027388   0.0006225
    2  -0.0010406  -0.0003784  -0.0000263  -0.0000937   0.0019154  -0.0012577
    3  -0.0004623  -0.0000498  -0.0007300   0.0001692  -0.0002984   0.0019036
           19          20          21          22          23          24
    1   0.0005944   0.0001753  -0.0002536  -0.0011215  -0.0003981   0.0032001
    2  -0.0003430   0.0026256  -0.0004675   0.0001061  -0.0000632   0.0002612
    3  -0.0000475  -0.0003489   0.0004340   0.0002491  -0.0002050  -0.0012785
           25          26          27          28          29          30
    1  -0.0004223  -0.0018291  -0.0000736  -0.0002611  -0.0001147   0.0005151
    2  -0.0003430  -0.0029972   0.0003308  -0.0022220   0.0002027   0.0000224
    3   0.0007368   0.0005946  -0.0009610   0.0007316  -0.0002026   0.0006006
           31          32          33          34          35          36
    1  -0.0014187   0.0020445   0.0020378  -0.0005714   0.0001844   0.0013961
    2  -0.0002738   0.0016050   0.0011935  -0.0013088  -0.0010608   0.0010001
    3  -0.0005273  -0.0007624  -0.0012734  -0.0010581  -0.0001943  -0.0002839
           37          38          39          40          41          42
    1   0.0003031   0.0003531   0.0002154   0.0010848  -0.0001193  -0.0003036
    2   0.0012393   0.0012913   0.0010192  -0.0008178  -0.0010152  -0.0010301
    3  -0.0006248   0.0008763   0.0010970  -0.0005731   0.0017233   0.0000569
           43
    1  -0.0006198
    2   0.0003771
    3   0.0000446
 Max gradient component =       3.715E-03
 RMS gradient           =       1.078E-03
 Gradient time:  CPU 26.53 s  wall 2.27 s
 Geometry Optimization Parameters
   NAtoms,    NIC,     NZ,  NCons,   NDum,   NFix, NCnnct, MaxDiis
       43     329       0       0       0       0       0       0

 Cartesian Hessian Update
 Hessian Updated using BFGS Update


** GEOMETRY OPTIMIZATION IN CARTESIAN COORDINATES **
   Searching for a Minimum

   Optimization Cycle:  50

                       Coordinates (Angstroms)
     ATOM                X               Y               Z
      1  Fe       -1.0443812792    2.5264195366    0.2880962782
      2  O        -0.3046430026    2.9567580265    1.4532656644
      3  H         1.5371315084   -0.2507096814    2.8258597607
      4  H         2.2471587996    1.7632716823   -2.5123234566
      5  H         4.0857363504    0.9222647157   -0.5721887536
      6  O        -0.8805597721    0.9900875665   -0.3483653906
      7  H         0.5624427846    1.2143051192   -2.1931412444
      8  H         3.8787667151   -0.4543882984    1.6853082649
      9  C         1.4587361946   -1.3050431612    2.4907347972
     10  C         1.6090235458    0.8758634750   -2.3007985739
     11  H        -5.4487220499    0.1765389195    1.8246629207
     12  C         2.1713755258    0.0959562887   -1.0844962154
     13  H        -3.2181211758    0.2373267351    0.7023905490
     14  H         2.0642113586   -1.9330862812    3.1754758726
     15  H         0.4068338683   -1.6454305688    2.5765293219
     16  C         3.7131892206   -0.0072485386   -1.0811746837
     17  C         1.4084716319   -0.4724187962   -0.0291702097
     18  C        -0.0778287151   -0.3538077982    0.1036233017
     19  C         3.6189889120   -1.3567976669    1.0884397173
     20  H        -0.4831439948   -0.6305155903    1.1052177985
     21  C        -5.6757803638   -0.7369312660    1.2342177004
     22  C         2.0327767980   -1.4899873791    1.0233091229
     23  H         1.6843006585    0.2138799336   -3.1971279427
     24  C        -3.4575293772   -0.6508517681    0.0785604664
     25  H         4.0739678607    0.0425101985   -2.1327520963
     26  C        -1.1772809413   -0.3811511960   -1.0315402295
     27  C         4.2811946962   -1.2573632476   -0.3229772239
     28  H         3.9982875494   -2.2538603738    1.6290874901
     29  H         5.3799709039   -1.1272943187   -0.2139815677
     30  H        -6.6565515881   -1.2284606046    1.4163956569
     31  C        -4.7772418160   -1.2482489483    0.2946232490
     32  C        -2.5115178959   -1.0848681142   -0.8665778650
     33  H        -0.7670962742   -0.3476266851   -2.0762890117
     34  C         1.6636254430   -2.9530756678    0.4955270289
     35  H         4.1081528292   -2.1804958228   -0.9192099819
     36  H         0.5662408364   -3.0839294897    0.4316474451
     37  H         2.0737836747   -3.6947248063    1.2078038467
     38  H        -5.0675831414   -2.1387272992   -0.2968794055
     39  H         2.1099829531   -3.1302280884   -0.5007689751
     40  C        -2.6411259552   -2.3387117153   -1.7664393911
     41  H        -2.5312849315   -2.0665528348   -2.8382014915
     42  H        -3.6194000832   -2.8380589315   -1.6204024980
     43  H        -1.8364190218   -3.0673333153   -1.5171181256
   Point Group: c1    Number of degrees of freedom:   123


   Energy is  -2014.061802053


 Translations and Rotations Projected Out of Hessian

 89 Hessian modes will be used to form the next step
  Hessian Eigenvalues:
     0.002486    0.005008    0.009753    0.017686    0.052323    0.061919
     0.111653    0.128282    0.205661    0.257854    0.345622    0.431547
     0.578970    0.690602    0.741130    0.890358    0.923632    0.957804
     0.985186    0.997636    0.999642    0.999948    0.999967    0.999991
     0.999996    0.999997    0.999999    1.000000    1.000000    1.000000
     1.000000    1.000000    1.000000    1.000000    1.000000    1.000000
     1.000000    1.000000    1.000000    1.000000    1.000000    1.000000
     1.000000    1.000000    1.000000    1.000000    1.000000    1.000000
     1.000000    1.000002    1.000006    1.000007    1.000015    1.000025
     1.000036    1.000049    1.000052    1.000080    1.000121    1.000148
     1.000180    1.000273    1.000388    1.000473    1.000545    1.000828
     1.001208    1.001831    1.002073    1.002756    1.003463    1.004801
     1.005444    1.007289    1.010523    1.011955    1.014619    1.027967
     1.031319    1.038910    1.061005    1.092920    1.111241    1.121800
     1.228667    1.448368    1.864319    2.516478   11.054864

 Minimum Search - Taking Simple RFO Step
 Searching for Lamda that Minimizes Along All modes
 Value Taken    Lamda =  -0.00022148
 Step Taken.  Stepsize is  0.089882

                             Maximum     Tolerance    Cnvgd?
         Gradient           0.003715      0.000300      NO
         Displacement       0.020133      0.001200      NO
         Energy change     -0.000429      0.000001      NO

 ----------------------------------------------------------------
             Standard Nuclear Orientation (Angstroms)
    I     Atom           X                Y                Z
 ----------------------------------------------------------------
    1      Fe     -1.0486539888     2.5253462466     0.2987501073
    2      O      -0.3106083775     2.9566168550     1.4630072727
    3      H       1.5430770424    -0.2469069036     2.8281733413
    4      H       2.2433925291     1.7581386155    -2.5171856160
    5      H       4.0877267382     0.9221143326    -0.5802419406
    6      O      -0.8733561752     0.9919986176    -0.3416828027
    7      H       0.5581272828     1.2063482645    -2.1964486101
    8      H       3.8828236974    -0.4532338930     1.6860598639
    9      C       1.4628828539    -1.3013339073     2.4942198132
   10      C       1.6059938052     0.8699677238    -2.3051329930
   11      H      -5.4520726650     0.1697782440     1.8287638264
   12      C       2.1713154231     0.0943287140    -1.0862281497
   13      H      -3.2222442612     0.2351410226     0.7044684505
   14      H       2.0685386696    -1.9286811425     3.1798824633
   15      H       0.4110620648    -1.6416931246     2.5828129886
   16      C       3.7143085083    -0.0092378050    -1.0849594509
   17      C       1.4089795663    -0.4767708564    -0.0318962445
   18      C      -0.0784801252    -0.3481782700     0.1038533990
   19      C       3.6221747656    -1.3551393699     1.0884799124
   20      H      -0.4792295676    -0.6364556433     1.1037638470
   21      C      -5.6794906716    -0.7396515894     1.2321149263
   22      C       2.0344590687    -1.4899399432     1.0252959547
   23      H       1.6836980365     0.2054922828    -3.1998283909
   24      C      -3.4606662497    -0.6526670598     0.0795907907
   25      H       4.0749723637     0.0381029146    -2.1375684913
   26      C      -1.1803561180    -0.3775332186    -1.0299519130
   27      C       4.2832211891    -1.2579790395    -0.3238331265
   28      H       4.0039625363    -2.2503362901     1.6304058107
   29      H       5.3825531811    -1.1290755535    -0.2148570539
   30      H      -6.6606363187    -1.2317850534     1.4115825774
   31      C      -4.7803569305    -1.2489281969     0.2922234157
   32      C      -2.5151247456    -1.0814581838    -0.8681489758
   33      H      -0.7696927878    -0.3428263009    -2.0737089205
   34      C       1.6649937380    -2.9543334082     0.5017534324
   35      H       4.1075802198    -2.1815936410    -0.9185219532
   36      H       0.5672960498    -3.0847382316     0.4400890584
   37      H       2.0747534867    -3.6957195732     1.2146618110
   38      H      -5.0686720696    -2.1375613298    -0.3028984585
   39      H       2.1090748600    -3.1330411753    -0.4957216392
   40      C      -2.6414900436    -2.3318550173    -1.7730803104
   41      H      -2.5309313187    -2.0563200737    -2.8440389594
   42      H      -3.6207861511    -2.8303890265    -1.6291133265
   43      H      -1.8359798713    -3.0607570692    -1.5260538162
 ----------------------------------------------------------------
 Molecular Point Group                 C1    NOp =  1
 Largest Abelian Subgroup              C1    NOp =  1
 Nuclear Repulsion Energy =  1797.8695315891 hartrees
 There are       82 alpha and       78 beta electrons


 *******************************************
 **  MAXIMUM OPTIMIZATION CYCLES REACHED  **
 *******************************************

 Q-Chem fatal error occurred in module 0, line  456:

 Maximum optimization cycles reached

