
Running Job 1 of 1 mol_3_2_opt_631g_gga.in
qchem mol_3_2_opt_631g_gga.in_7177.0 /scr/c295_lal/137009/qchem7177/ 1
/usr/software/qchem_511/exe/qcprog.exe_s mol_3_2_opt_631g_gga.in_7177.0 /scr/c295_lal/137009/qchem7177/
Check license passed

                  Welcome to Q-Chem
     A Quantum Leap Into The Future Of Chemistry


 Q-Chem 5.1, Q-Chem, Inc., Pleasanton, CA (2018)

 Yihan Shao,  Zhengting Gan,  E. Epifanovsky,  A. T. B. Gilbert,  M. Wormit,  
 J. Kussmann,  A. W. Lange,  A. Behn,  Jia Deng,  Xintian Feng,  D. Ghosh,  
 M. Goldey,  P. R. Horn,  L. D. Jacobson,  I. Kaliman,  T. Kus,  A. Landau,  
 Jie Liu,  E. I. Proynov,  R. M. Richard,  R. P. Steele,  E. J. Sundstrom,  
 H. L. Woodcock III,  P. M. Zimmerman,  D. Zuev,  B. Albrecht,  E. Alguire,  
 S. A. Baeppler,  D. Barton,  Z. Benda,  Y. A. Bernard,  E. J. Berquist,  
 K. B. Bravaya,  H. Burton,  D. Casanova,  Chun-Min Chang,  Yunqing Chen,  
 A. Chien,  K. D. Closser,  M. P. Coons,  S. Coriani,  S. Dasgupta,  
 A. L. Dempwolff,  M. Diedenhofen,  Hainam Do,  R. G. Edgar,  Po-Tung Fang,  
 S. Faraji,  S. Fatehi,  Qingguo Feng,  K. D. Fenk,  J. Fosso-Tande,  
 Qinghui Ge,  A. Ghysels,  G. Gidofalvi,  J. Gomes,  J. Gonthier,  A. Gunina,  
 D. Hait,  M. W. D. Hanson-Heine,  P. H. P. Harbach,  A. W. Hauser,  
 J. E. Herr,  E. G. Hohenstein,  Z. C. Holden,  Kerwin Hui,  B. C. Huynh,  
 T.-C. Jagau,  Hyunjun Ji,  B. Kaduk,  K. Khistyaev,  Jaehoon Kim,  
 P. Klunzinger,  K. Koh,  D. Kosenkov,  L. Koulias,  T. Kowalczyk,  
 C. M. Krauter,  A. Kunitsa,  Ka Un Lao,  A. Laurent,  K. V. Lawler,  
 Joonho Lee,  D. Lefrancois,  S. Lehtola,  D. S. Levine,  Yi-Pei Li,  
 You-Sheng Lin,  Fenglai Liu,  E. Livshits,  A. Luenser,  P. Manohar,  
 E. Mansoor,  S. F. Manzer,  Shan-Ping Mao,  Yuezhi Mao,  N. Mardirossian,  
 A. V. Marenich,  T. Markovich,  L. A. Martinez-Martinez,  S. A. Maurer,  
 N. J. Mayhall,  S. C. McKenzie,  J.-M. Mewes,  A. F. Morrison,  
 J. W. Mullinax,  K. Nanda,  T. S. Nguyen-Beck,  R. Olivares-Amaya,  
 J. A. Parkhill,  T. M. Perrine,  F. Plasser,  P. Pokhilko,  S. Prager,  
 A. Prociuk,  E. Ramos,  D. R. Rehn,  F. Rob,  M. Schneider,  N. Sergueev,  
 S. M. Sharada,  S. Sharma,  D. W. Small,  T. Stauch,  T. Stein,  
 Yu-Chuan Su,  A. J. W. Thom,  A. Tkatchenko,  T. Tsuchimochi,  N. M. Tubman,  
 L. Vogt,  M. L. Vidal,  O. Vydrov,  M. A. Watson,  J. Wenzel,  
 M. de Wergifosse,  T. A. Wesolowski,  A. White,  J. Witte,  A. Yamada,  
 Jun Yang,  K. Yao,  S. Yeganeh,  S. R. Yost,  Zhi-Qiang You,  A. Zech,  
 Igor Ying Zhang,  Xing Zhang,  Yan Zhao,  Ying Zhu,  B. R. Brooks,  
 G. K. L. Chan,  C. J. Cramer,  M. S. Gordon,  W. J. Hehre,  A. Klamt,  
 M. W. Schmidt,  C. D. Sherrill,  D. G. Truhlar,  A. Aspuru-Guzik,  R. Baer,  
 A. T. Bell,  N. A. Besley,  Jeng-Da Chai,  A. E. DePrince, III,  
 R. A. DiStasio Jr.,  A. Dreuw,  B. D. Dunietz,  T. R. Furlani,  
 Chao-Ping Hsu,  Yousung Jung,  Jing Kong,  D. S. Lambrecht,  WanZhen Liang,  
 C. Ochsenfeld,  V. A. Rassolov,  L. V. Slipchenko,  J. E. Subotnik,  
 T. Van Voorhis,  J. M. Herbert,  A. I. Krylov,  P. M. W. Gill,  M. Head-Gordon

 Contributors to earlier versions of Q-Chem not listed above: 
 R. D. Adamson,  B. Austin,  J. Baker,  G. J. O. Beran,  K. Brandhorst,  
 S. T. Brown,  E. F. C. Byrd,  A. K. Chakraborty,  C.-L. Cheng,  
 Siu Hung Chien,  D. M. Chipman,  D. L. Crittenden,  H. Dachsel,  
 R. J. Doerksen,  A. D. Dutoi,  L. Fusti-Molnar,  W. A. Goddard III,  
 A. Golubeva-Zadorozhnaya,  S. R. Gwaltney,  G. Hawkins,  A. Heyden,  
 S. Hirata,  G. Kedziora,  F. J. Keil,  C. Kelley,  Jihan Kim,  R. A. King,  
 R. Z. Khaliullin,  P. P. Korambath,  W. Kurlancheek,  A. M. Lee,  M. S. Lee,  
 S. V. Levchenko,  Ching Yeh Lin,  D. Liotard,  R. C. Lochan,  I. Lotan,  
 P. E. Maslen,  N. Nair,  D. P. O'Neill,  D. Neuhauser,  E. Neuscamman,  
 C. M. Oana,  R. Olson,  B. Peters,  R. Peverati,  P. A. Pieniazek,  
 Y. M. Rhee,  J. Ritchie,  M. A. Rohrdanz,  E. Rosta,  N. J. Russ,  
 H. F. Schaefer III,  N. E. Schultz,  N. Shenvi,  A. C. Simmonett,  A. Sodt,  
 D. Stuck,  K. S. Thanthiriwatte,  V. Vanovschi,  Tao Wang,  A. Warshel,  
 C. F. Williams,  Q. Wu,  X. Xu,  W. Zhang

 Please cite Q-Chem as follows:
 Y. Shao et al., Mol. Phys. 113, 184-215 (2015)
 DOI: 10.1080/00268976.2014.952696

 Q-Chem 5.1.1 for Intel X86 EM64T Linux

 Parts of Q-Chem use Armadillo 8.300.2 (Tropical Shenanigans).
 http://arma.sourceforge.net/

 Q-Chem begins on Tue Oct 30 21:21:51 2018  

Host: cub-0-13.local
0

     Scratch files written to /scr/c295_lal/137009/qchem7177//
 Aug318 |scratch|qcdevops|jenkins|workspace|build_RNUM -1
Processing $rem in /usr/software/qchem_511/config/preferences.
 MEM_TOTAL  2000 
Input Ideriv = 2
Curr. Ideriv = -1
Max.  Ideriv = 2

Checking the input file for inconsistencies... 	...done.

--------------------------------------------------------------
User input:
--------------------------------------------------------------
$molecule
0 1
C         15.07220        4.72590        5.22463
C         13.77417        4.41390        5.22610
C         13.32031        3.03209        5.48840
C         12.01592        2.72046        5.48941
C         11.57697        1.32478        5.75523
C         10.29576        0.87854        5.78487
H         15.38416        5.74687        5.02969
H         15.83179        3.97366        5.41607
H         13.04573        5.19614        5.02999
H         14.06249        2.26109        5.68288
H         12.37120        0.60449        5.94187
C          6.56256       -5.55024        6.92460
C          7.61976       -4.73556        6.80884
H          6.72435       -6.60001        7.14837
H          5.53861       -5.22690        6.80798
C          7.56366       -3.27006        6.50475
C          8.74266       -2.60776        6.42620
H          8.59669       -5.19162        6.95044
C          8.87011       -1.15594        6.13387
C         10.08134       -0.57392        6.07317
H          9.66554       -3.16184        6.58524
H          7.97793       -0.56516        5.96890
H         10.95715       -1.19653        6.24384
H         11.30561        3.51181        5.29226
C          6.25656       -2.53119        6.28889
H          5.35907       -3.16589        6.37551
H          6.24250       -2.08707        5.27110
H          6.15580       -1.72260        7.04345
C          9.09289        1.77074        5.54302
H          9.32649        2.82773        5.33699
H          8.43770        1.75419        6.43909
H          8.52358        1.39022        4.66919

$end

$rem
BASIS = 6-31G
METHOD  = BLYP
JOBTYPE = OPT
$end
--------------------------------------------------------------
 ----------------------------------------------------------------
             Standard Nuclear Orientation (Angstroms)
    I     Atom           X                Y                Z
 ----------------------------------------------------------------
    1      C       6.9926944616    -0.8352960826    -0.0005932196
    2      C       5.9334355470    -0.0227700785    -0.0002992645
    3      C       4.5570318760    -0.5610097512    -0.0000653638
    4      C       3.4940934281     0.2567367600     0.0001548362
    5      C       2.1160672847    -0.3021048570     0.0003351060
    6      C       0.9612596519     0.4105851594     0.0003905608
    7      H       7.9950330254    -0.4193420478    -0.0007676057
    8      H       6.8736217957    -1.9147927042    -0.0006522759
    9      H       6.0957240371     1.0517743957    -0.0002535786
   10      H       4.4122278058    -1.6390294185    -0.0000971653
   11      H       2.0439237973    -1.3880370754     0.0003620625
   12      C      -6.4573182437    -0.8262173178    -0.0004099976
   13      C      -5.1515778503    -1.1259131008     0.0000173793
   14      H      -7.1858318111    -1.6309123170    -0.0003085040
   15      H      -6.8426968959     0.1827949049    -0.0008697314
   16      C      -4.0282903779    -0.1351894079    -0.0000641111
   17      C      -2.7667445691    -0.6284990503     0.0003377207
   18      H      -4.9005397989    -2.1839363591     0.0004535130
   19      C      -1.5393685036     0.2099695753     0.0002981020
   20      C      -0.3210751844    -0.3603559775     0.0004866473
   21      H      -2.6270114109    -1.7076099738     0.0006865213
   22      H      -1.6308891825     1.2887861380     0.0000721766
   23      H      -0.2649561598    -1.4469401853     0.0006640467
   24      H       3.6749386497     1.3230098239     0.0001548467
   25      C      -4.2624653852     1.3635422581    -0.0005985692
   26      H      -5.3259729864     1.6547241535    -0.0009153861
   27      H      -3.8031112523     1.8127954980    -0.9064142509
   28      H      -3.8034863728     1.8134109397     0.9050987284
   29      C       0.9134742087     1.9268717570     0.0003215601
   30      H       1.8952143392     2.4273030644     0.0002614111
   31      H       0.3732926436     2.2769886491     0.9048166248
   32      H       0.3732217129     2.2769131985    -0.9041597528
 ----------------------------------------------------------------
 Molecular Point Group                 C1    NOp =  1
 Largest Abelian Subgroup              C1    NOp =  1
 Nuclear Repulsion Energy =   731.1834738959 hartrees
 There are       51 alpha and       51 beta electrons
 Requested basis set is 6-31G
 There are 78 shells and 162 basis functions

 Total QAlloc Memory Limit   2000 MB
 Mega-Array Size       188 MB
 MEM_STATIC part       192 MB
 A cutoff of  1.0D-11 yielded   1881 shell pairs
 There are      8934 function pairs
 
 -------------------------------------------------------
 OpenMP Integral Computing Module                       
 Release: version 1.0, May 2013, Q-Chem Inc. Pittsburgh 
 -------------------------------------------------------
 Integral Job Info:
 Integral job number is                      11
 Integral operator is                         1
 short-range coefficients                     0
 long-range coefficients              100000000
 Omega coefficients                           0
 if combine SR and LR in K                    0
 Integral screening is                        0
 Integral computing path is                   2
 max size of driver memory is            800000
 size of driver memory is                 45569
 size of scratch memory is              2040132
 max col of scratch BK array                289
 max len of scratch array in speh3           22
 max len of scratch index in speh4            8
 max int batch size is                      520
 min int batch size is                       52
 fixed nKL is                                52
 max L of basis functions is                  1
 order of int derivative is                   0
 number of shells is                         78
 number of basis is                         162
 number of cartesian basis is               162
 number of contracted shell pairs          1881
 number of primitive shell pairs           7554
 maxK2 (contraction) of shell pair           36
 max number of K2 of shell pair               1
 max number of CS2 of shell pair            322
 max number of PS2 of shell pair           1284
 mem total for path MDJ                  536654
 -------------------------------------------------------
 Smallest overlap matrix eigenvalue = 1.84E-03

 Scale SEOQF with 1.000000e-02/1.000000e-01/1.000000e+00

 Standard Electronic Orientation quadrupole field applied
 Nucleus-field energy     =     0.0000000106 hartrees
 Guess from superposition of atomic densities
 Warning:  Energy on first SCF cycle will be non-variational
 SAD guess density has 102.000000 electrons

 -----------------------------------------------------------------------
  General SCF calculation program by
  Eric Jon Sundstrom, Paul Horn, Yuezhi Mao, Dmitri Zuev, Alec White,
  David Stuck, Shaama M.S., Shane Yost, Joonho Lee, David Small,
  Daniel Levine, Susi Lehtola, Hugh Burton, Evgeny Epifanovsky
 -----------------------------------------------------------------------
 Exchange:  B88      Correlation:  LYP
 Using SG-1 standard quadrature grid
 using 4 threads for integral computing
 -------------------------------------------------------
 OpenMP Integral computing Module                
 Release: version 1.0, May 2013, Q-Chem Inc. Pittsburgh 
 -------------------------------------------------------
 -------------------------------------------------------
 OpenMP BLAS3 based DFT computing Module                
 Release: version 1.0, May 2013, Q-Chem Inc. Pittsburgh 
 -------------------------------------------------------
 A restricted SCF calculation will be
 performed using DIIS
 SCF converges when DIIS error is below 1.0e-08
 ---------------------------------------
  Cycle       Energy         DIIS error
 ---------------------------------------
    1    -545.8007099403      7.23e-02  
    2    -543.4510467051      9.89e-03  
    3    -543.3126850714      1.15e-02  
    4    -543.8268475413      1.50e-03  
    5    -543.8305206121      1.13e-03  
    6    -543.8361073682      3.08e-04  
    7    -543.8364651516      6.73e-05  
    8    -543.8364725996      5.03e-05  
    9    -543.8364824545      1.19e-05  
   10    -543.8364830006      3.46e-06  
   11    -543.8364830444      1.22e-06  
   12    -543.8364830501      4.71e-07  
   13    -543.8364830509      2.08e-07  
   14    -543.8364830511      4.60e-08  
   15    -543.8364830511      1.79e-08  
   16    -543.8364830511      5.59e-09  Convergence criterion met
 ---------------------------------------
 SCF time:   CPU 58.15s  wall 15.00s 
 SCF   energy in the final basis set =     -543.8364830511
 Total energy in the final basis set =     -543.8364830511
 
 --------------------------------------------------------------
 
                    Orbital Energies (a.u.)
 --------------------------------------------------------------
 
 Alpha MOs
 -- Occupied --
 -9.931  -9.927  -9.921  -9.919  -9.919  -9.918  -9.918  -9.918
 -9.917  -9.916  -9.915  -9.913  -9.908  -9.904  -0.746  -0.734
 -0.718  -0.685  -0.663  -0.647  -0.614  -0.606  -0.550  -0.517
 -0.495  -0.484  -0.471  -0.455  -0.432  -0.416  -0.402  -0.393
 -0.372  -0.369  -0.365  -0.360  -0.340  -0.337  -0.330  -0.322
 -0.316  -0.311  -0.303  -0.292  -0.289  -0.279  -0.275  -0.252
 -0.230  -0.190  -0.154
 -- Virtual --
 -0.073  -0.031   0.013   0.044   0.066   0.066   0.078   0.080
  0.087   0.089   0.103   0.104   0.116   0.119   0.128   0.135
  0.143   0.162   0.165   0.165   0.175   0.179   0.194   0.205
  0.210   0.215   0.243   0.290   0.305   0.323   0.340   0.358
  0.364   0.377   0.383   0.408   0.423   0.474   0.477   0.486
  0.492   0.506   0.520   0.524   0.525   0.531   0.547   0.551
  0.560   0.581   0.591   0.592   0.605   0.616   0.619   0.622
  0.630   0.648   0.654   0.661   0.676   0.678   0.680   0.685
  0.714   0.723   0.724   0.749   0.749   0.786   0.793   0.820
  0.821   0.831   0.840   0.861   0.864   0.879   0.881   0.885
  0.890   0.907   0.914   0.916   0.937   0.949   0.963   0.969
  0.984   1.010   1.044   1.062   1.074   1.091   1.096   1.115
  1.136   1.162   1.171   1.196   1.251   1.267   1.289   1.306
  1.321   1.354   1.389   1.465   1.494   1.558   1.589
 --------------------------------------------------------------
 
          Ground-State Mulliken Net Atomic Charges

     Atom                 Charge (a.u.)
  ----------------------------------------
      1 C                    -0.278611
      2 C                    -0.035364
      3 C                    -0.088320
      4 C                    -0.079229
      5 C                    -0.169265
      6 C                     0.151265
      7 H                     0.101748
      8 H                     0.106774
      9 H                     0.094830
     10 H                     0.094723
     11 H                     0.088371
     12 C                    -0.284845
     13 C                    -0.064487
     14 H                     0.101542
     15 H                     0.107318
     16 C                     0.137266
     17 C                    -0.154660
     18 H                     0.091583
     19 C                    -0.078974
     20 C                    -0.129537
     21 H                     0.087106
     22 H                     0.096360
     23 H                     0.089961
     24 H                     0.096193
     25 C                    -0.451138
     26 H                     0.127588
     27 H                     0.141275
     28 H                     0.141275
     29 C                    -0.450746
     30 H                     0.131335
     31 H                     0.139332
     32 H                     0.139331
  ----------------------------------------
  Sum of atomic charges =    -0.000000

 -----------------------------------------------------------------
                    Cartesian Multipole Moments
 -----------------------------------------------------------------
    Charge (ESU x 10^10)
                -0.0000
    Dipole Moment (Debye)
         X       0.1612      Y       0.7358      Z      -0.0002
       Tot       0.7533
    Quadrupole Moments (Debye-Ang)
        XX     -84.4037     XY      -0.2679     YY     -78.1705
        XZ       0.0004     YZ      -0.0017     ZZ     -92.0227
    Octopole Moments (Debye-Ang^2)
       XXX       9.9865    XXY      12.9355    XYY       2.2086
       YYY      -5.1853    XXZ      -0.0183    XYZ       0.0088
       YYZ       0.0031    XZZ      -3.4673    YZZ       4.8782
       ZZZ      -0.0008
    Hexadecapole Moments (Debye-Ang^3)
      XXXX   -8764.7209   XXXY      26.9834   XXYY   -1491.4305
      XYYY      10.5336   YYYY    -590.5360   XXXZ      -0.0013
      XXYZ      -0.0267   XYYZ      -0.0155   YYYZ      -0.0022
      XXZZ   -1681.4574   XYZZ      -6.8606   YYZZ    -121.0056
      XZZZ       0.0096   YZZZ      -0.0024   ZZZZ    -108.9862
 -----------------------------------------------------------------
 Calculating analytic gradient of the SCF energy
 Gradient of SCF Energy
            1           2           3           4           5           6
    1  -0.0202793   0.0258620  -0.0345679   0.0451514  -0.0354731   0.0252490
    2   0.0059056   0.0119319  -0.0094797   0.0123138  -0.0138463   0.0103648
    3   0.0000035  -0.0000040   0.0000048  -0.0000067   0.0000041  -0.0000038
            7           8           9          10          11          12
    1  -0.0069946  -0.0026902   0.0051073  -0.0032745  -0.0020145   0.0140310
    2   0.0029641   0.0052862  -0.0069100   0.0056144   0.0054437   0.0033892
    3   0.0000020   0.0000011  -0.0000018   0.0000006  -0.0000008   0.0000029
           13          14          15          16          17          18
    1  -0.0177605   0.0062285   0.0035465   0.0263924  -0.0325000  -0.0090869
    2  -0.0198959   0.0015813  -0.0075312   0.0158673  -0.0172499   0.0042568
    3   0.0000029   0.0000007   0.0000022  -0.0000012  -0.0000016  -0.0000033
           19          20          21          22          23          24
    1   0.0377229  -0.0368447  -0.0030091   0.0034908  -0.0053751   0.0041891
    2   0.0180178  -0.0160331   0.0048230  -0.0052499   0.0051458  -0.0086661
    3  -0.0000014   0.0000009  -0.0000024   0.0000010  -0.0000011  -0.0000014
           25          26          27          28          29          30
    1   0.0038814  -0.0011312   0.0010738   0.0010706   0.0062083   0.0003755
    2  -0.0046772   0.0025483  -0.0015890  -0.0015846  -0.0033302   0.0049507
    3   0.0000057  -0.0000019  -0.0051205   0.0051198  -0.0000012   0.0000001
           31          32
    1   0.0007110   0.0007101
    2  -0.0021805  -0.0021809
    3   0.0047132  -0.0047123
 Max gradient component =       4.515E-02
 RMS gradient           =       1.226E-02
 Gradient time:  CPU 8.02 s  wall 2.01 s
 Geometry Optimization Parameters
   NAtoms,    NIC,     NZ,  NCons,   NDum,   NFix, NCnnct, MaxDiis
       32     199       0       0       0       0       0       0


** GEOMETRY OPTIMIZATION IN DELOCALIZED INTERNAL COORDINATES **
   Searching for a Minimum

   Optimization Cycle:   1

                       Coordinates (Angstroms)
     ATOM                X               Y               Z
      1  C         6.9926944616   -0.8352960826   -0.0005932196
      2  C         5.9334355470   -0.0227700785   -0.0002992645
      3  C         4.5570318760   -0.5610097512   -0.0000653638
      4  C         3.4940934281    0.2567367600    0.0001548362
      5  C         2.1160672847   -0.3021048570    0.0003351060
      6  C         0.9612596519    0.4105851594    0.0003905608
      7  H         7.9950330254   -0.4193420478   -0.0007676057
      8  H         6.8736217957   -1.9147927042   -0.0006522759
      9  H         6.0957240371    1.0517743957   -0.0002535786
     10  H         4.4122278058   -1.6390294185   -0.0000971653
     11  H         2.0439237973   -1.3880370754    0.0003620625
     12  C        -6.4573182437   -0.8262173178   -0.0004099976
     13  C        -5.1515778503   -1.1259131008    0.0000173793
     14  H        -7.1858318111   -1.6309123170   -0.0003085040
     15  H        -6.8426968959    0.1827949049   -0.0008697314
     16  C        -4.0282903779   -0.1351894079   -0.0000641111
     17  C        -2.7667445691   -0.6284990503    0.0003377207
     18  H        -4.9005397989   -2.1839363591    0.0004535130
     19  C        -1.5393685036    0.2099695753    0.0002981020
     20  C        -0.3210751844   -0.3603559775    0.0004866473
     21  H        -2.6270114109   -1.7076099738    0.0006865213
     22  H        -1.6308891825    1.2887861380    0.0000721766
     23  H        -0.2649561598   -1.4469401853    0.0006640467
     24  H         3.6749386497    1.3230098239    0.0001548467
     25  C        -4.2624653852    1.3635422581   -0.0005985692
     26  H        -5.3259729864    1.6547241535   -0.0009153861
     27  H        -3.8031112523    1.8127954980   -0.9064142509
     28  H        -3.8034863728    1.8134109397    0.9050987284
     29  C         0.9134742087    1.9268717570    0.0003215601
     30  H         1.8952143392    2.4273030644    0.0002614111
     31  H         0.3732926436    2.2769886491    0.9048166248
     32  H         0.3732217129    2.2769131985   -0.9041597528
   Point Group: c1    Number of degrees of freedom:    90


   Energy is   -543.836483051


 Attempting to Generate Delocalized Internal Coordinates

 90 Hessian modes will be used to form the next step
  Hessian Eigenvalues:
     0.006925    0.006941    0.009474    0.009676    0.010894    0.010973
     0.012102    0.013432    0.013754    0.019646    0.019666    0.019762
     0.019838    0.020184    0.020357    0.021232    0.021456    0.028092
     0.028417    0.029658    0.030198    0.030384    0.030384    0.031005
     0.031005    0.068193    0.069358    0.073750    0.074316    0.160000
     0.160000    0.160000    0.160000    0.160000    0.160000    0.160000
     0.160000    0.160000    0.160000    0.160000    0.160000    0.160000
     0.160000    0.160000    0.160000    0.160000    0.160000    0.220000
     0.220000    0.220000    0.220000    0.220000    0.220000    0.220000
     0.220000    0.250000    0.250000    0.250000    0.250000    0.306535
     0.306655    0.325411    0.325414    0.325815    0.325815    0.326126
     0.327751    0.333908    0.334698    0.337770    0.338435    0.348111
     0.350068    0.350308    0.350410    0.350796    0.351151    0.351932
     0.352739    0.353403    0.353710    0.356711    0.358136    0.359819
     0.535541    0.540610    0.560597    0.569593    0.572739    0.583399

 Minimum Search - Taking Simple RFO Step
 Searching for Lamda that Minimizes Along All modes
 Value Taken    Lamda =  -0.02480700
 Step Taken.  Stepsize is  0.276001

                             Maximum     Tolerance    Cnvgd?
         Gradient           0.042040      0.000300      NO
         Displacement       0.124618      0.001200      NO
         Energy change     *********      0.000001      NO


 New Cartesian Coordinates Obtained by Inverse Iteration

 Displacement from previous Coordinates is:  0.999301
 ----------------------------------------------------------------
             Standard Nuclear Orientation (Angstroms)
    I     Atom           X                Y                Z
 ----------------------------------------------------------------
    1      C       7.1119710317    -0.8929545570    -0.0002991254
    2      C       6.0107695914    -0.0894510162    -0.0001460996
    3      C       4.6298572619    -0.5836061550    -0.0000427031
    4      C       3.5210547270     0.2302013442     0.0000683655
    5      C       2.1557124254    -0.2861763338     0.0001527601
    6      C       0.9748457757     0.4324292313     0.0001670206
    7      H       8.1228733614    -0.4782371627    -0.0003756874
    8      H       7.0226344278    -1.9822901904    -0.0003453677
    9      H       6.1404402792     0.9981040916    -0.0001034420
   10      H       4.5046798087    -1.6713525354    -0.0000631971
   11      H       2.0879682094    -1.3798845244     0.0001854813
   12      C      -6.5003031630    -0.8656614151    -0.0002033336
   13      C      -5.1618183374    -1.1107913165     0.0000001600
   14      H      -7.2170934365    -1.6907644794    -0.0001132386
   15      H      -6.9261467951     0.1393643231    -0.0004492964
   16      C      -4.0737993395    -0.1131324655    -0.0000828248
   17      C      -2.7713638914    -0.5746443416     0.0001414589
   18      H      -4.8289223427    -2.1552024329     0.0002603055
   19      C      -1.5564607200     0.2372490706     0.0001005450
   20      C      -0.2948467374    -0.3114397681     0.0002160074
   21      H      -2.6044878048    -1.6572725779     0.0003794184
   22      H      -1.6762972600     1.3209998488    -0.0000285125
   23      H      -0.1984251906    -1.4028599817     0.0003467301
   24      H       3.6709942947     1.3122020901     0.0000854242
   25      C      -4.4043066466     1.3771386540    -0.0004067786
   26      H      -5.4867281146     1.5732692767    -0.0005510874
   27      H      -3.9866267483     1.8755400365    -0.8932453336
   28      H      -3.9868088649     1.8758931151     0.8923203234
   29      C       0.9021243813     1.9525096262     0.0001273484
   30      H       1.8919426721     2.4280511695     0.0001151945
   31      H       0.3602391681     2.3205313438     0.8912076303
   32      H       0.3602462572     2.3204886022    -0.8909750790
 ----------------------------------------------------------------
 Molecular Point Group                 C1    NOp =  1
 Largest Abelian Subgroup              C1    NOp =  1
 Nuclear Repulsion Energy =   724.8780121518 hartrees
 There are       51 alpha and       51 beta electrons
 Applying Cartesian multipole field
    Component          Value
    ---------          -----
     (2,0,0)        1.00000E-12
     (0,2,0)        2.00000E-11
     (0,0,2)       -3.00000E-10
 Nucleus-field energy     =     0.0000000110 hartrees
 Requested basis set is 6-31G
 There are 78 shells and 162 basis functions
 A cutoff of  1.0D-11 yielded   1872 shell pairs
 There are      8892 function pairs
 Smallest overlap matrix eigenvalue = 1.89E-03
 Guess MOs from SCF MO coefficient file

 -----------------------------------------------------------------------
  General SCF calculation program by
  Eric Jon Sundstrom, Paul Horn, Yuezhi Mao, Dmitri Zuev, Alec White,
  David Stuck, Shaama M.S., Shane Yost, Joonho Lee, David Small,
  Daniel Levine, Susi Lehtola, Hugh Burton, Evgeny Epifanovsky
 -----------------------------------------------------------------------
 Exchange:  B88      Correlation:  LYP
 Using SG-1 standard quadrature grid
 using 4 threads for integral computing
 -------------------------------------------------------
 OpenMP Integral computing Module                
 Release: version 1.0, May 2013, Q-Chem Inc. Pittsburgh 
 -------------------------------------------------------
 -------------------------------------------------------
 OpenMP BLAS3 based DFT computing Module                
 Release: version 1.0, May 2013, Q-Chem Inc. Pittsburgh 
 -------------------------------------------------------
 A restricted SCF calculation will be
 performed using DIIS
 SCF converges when DIIS error is below 1.0e-08
 ---------------------------------------
  Cycle       Energy         DIIS error
 ---------------------------------------
    1    -543.8438182099      9.40e-04  
    2    -543.8496422059      2.86e-04  
    3    -543.8488831537      5.00e-04  
    4    -543.8498116095      1.87e-04  
    5    -543.8499715895      4.00e-05  
    6    -543.8499764498      2.13e-05  
    7    -543.8499782071      4.75e-06  
    8    -543.8499782861      1.58e-06  
    9    -543.8499782977      6.01e-07  
   10    -543.8499782991      2.25e-07  
   11    -543.8499782993      6.82e-08  
   12    -543.8499782993      2.44e-08  
   13    -543.8499782993      8.89e-09  Convergence criterion met
 ---------------------------------------
 SCF time:   CPU 48.72s  wall 12.00s 
 SCF   energy in the final basis set =     -543.8499782993
 Total energy in the final basis set =     -543.8499782993
 
 --------------------------------------------------------------
 
                    Orbital Energies (a.u.)
 --------------------------------------------------------------
 
 Alpha MOs
 -- Occupied --
 -9.936  -9.932  -9.926  -9.926  -9.925  -9.923  -9.922  -9.922
 -9.921  -9.918  -9.918  -9.915  -9.915  -9.911  -0.744  -0.732
 -0.715  -0.683  -0.660  -0.643  -0.614  -0.606  -0.560  -0.524
 -0.493  -0.485  -0.470  -0.455  -0.431  -0.413  -0.407  -0.388
 -0.376  -0.367  -0.364  -0.361  -0.343  -0.334  -0.334  -0.324
 -0.314  -0.311  -0.302  -0.292  -0.288  -0.284  -0.275  -0.252
 -0.230  -0.190  -0.151
 -- Virtual --
 -0.083  -0.038   0.008   0.041   0.066   0.066   0.077   0.080
  0.085   0.088   0.101   0.103   0.116   0.120   0.128   0.134
  0.147   0.161   0.162   0.164   0.174   0.180   0.197   0.201
  0.208   0.214   0.236   0.280   0.306   0.323   0.340   0.359
  0.361   0.371   0.379   0.402   0.417   0.470   0.476   0.484
  0.486   0.505   0.515   0.522   0.523   0.529   0.546   0.551
  0.558   0.580   0.584   0.591   0.598   0.602   0.617   0.620
  0.623   0.630   0.653   0.656   0.661   0.663   0.674   0.684
  0.708   0.713   0.719   0.735   0.750   0.781   0.791   0.811
  0.812   0.825   0.835   0.858   0.861   0.877   0.880   0.884
  0.892   0.907   0.913   0.918   0.933   0.949   0.958   0.965
  0.985   1.011   1.034   1.043   1.061   1.074   1.091   1.101
  1.121   1.146   1.162   1.190   1.255   1.258   1.278   1.295
  1.326   1.347   1.378   1.457   1.490   1.540   1.574
 --------------------------------------------------------------
 
          Ground-State Mulliken Net Atomic Charges

     Atom                 Charge (a.u.)
  ----------------------------------------
      1 C                    -0.282056
      2 C                    -0.038202
      3 C                    -0.091823
      4 C                    -0.081974
      5 C                    -0.162979
      6 C                     0.154413
      7 H                     0.108494
      8 H                     0.108650
      9 H                     0.093666
     10 H                     0.092853
     11 H                     0.090515
     12 C                    -0.288263
     13 C                    -0.071266
     14 H                     0.106203
     15 H                     0.109497
     16 C                     0.142697
     17 C                    -0.154179
     18 H                     0.092495
     19 C                    -0.077025
     20 C                    -0.138864
     21 H                     0.088126
     22 H                     0.094281
     23 H                     0.089702
     24 H                     0.095711
     25 C                    -0.452052
     26 H                     0.129908
     27 H                     0.140772
     28 H                     0.140771
     29 C                    -0.451804
     30 H                     0.129616
     31 H                     0.141058
     32 H                     0.141058
  ----------------------------------------
  Sum of atomic charges =    -0.000000

 -----------------------------------------------------------------
                    Cartesian Multipole Moments
 -----------------------------------------------------------------
    Charge (ESU x 10^10)
                -0.0000
    Dipole Moment (Debye)
         X       0.0140      Y       0.7632      Z      -0.0001
       Tot       0.7633
    Quadrupole Moments (Debye-Ang)
        XX     -83.2992     XY      -1.0786     YY     -78.5607
        XZ       0.0002     YZ      -0.0011     ZZ     -92.4518
    Octopole Moments (Debye-Ang^2)
       XXX       6.5138    XXY      10.5280    XYY       1.4347
       YYY      -4.2833    XXZ      -0.0071    XYZ       0.0058
       YYZ       0.0038    XZZ      -4.4537    YZZ       4.8789
       ZZZ       0.0063
    Hexadecapole Moments (Debye-Ang^3)
      XXXX   -8872.2182   XXXY      18.6550   XXYY   -1538.1515
      XYYY      32.0867   YYYY    -600.8170   XXXZ      -0.0188
      XXYZ      -0.0133   XYYZ      -0.0138   YYYZ       0.0027
      XXZZ   -1732.4356   XYZZ       3.1448   YYZZ    -122.9983
      XZZZ      -0.0090   YZZZ       0.0021   ZZZZ    -109.3635
 -----------------------------------------------------------------
 Calculating analytic gradient of the SCF energy
 Gradient of SCF Energy
            1           2           3           4           5           6
    1   0.0014566   0.0063900  -0.0101628   0.0115788  -0.0150937   0.0130100
    2  -0.0032822   0.0064512  -0.0061436   0.0068905  -0.0048896   0.0052536
    3  -0.0000010   0.0000002  -0.0000001  -0.0000011   0.0000007  -0.0000016
            7           8           9          10          11          12
    1   0.0000448  -0.0005338   0.0000494   0.0011906   0.0019192  -0.0000147
    2   0.0007951   0.0009466  -0.0015891   0.0016211   0.0012072   0.0030060
    3   0.0000001   0.0000002   0.0000001   0.0000002   0.0000003  -0.0000014
           13          14          15          16          17          18
    1  -0.0017422   0.0002392   0.0002317   0.0056470  -0.0114028  -0.0006630
    2  -0.0068131  -0.0005253  -0.0002344   0.0055388  -0.0082616   0.0008303
    3   0.0000009   0.0000002   0.0000002  -0.0000015  -0.0000003   0.0000007
           19          20          21          22          23          24
    1   0.0125642  -0.0116378   0.0013794  -0.0000974   0.0008177  -0.0003078
    2   0.0086301  -0.0066908   0.0016979  -0.0021047   0.0013926  -0.0020496
    3  -0.0000019  -0.0000002   0.0000009   0.0000016   0.0000010   0.0000005
           25          26          27          28          29          30
    1  -0.0005411  -0.0007812  -0.0007464  -0.0007471  -0.0016284  -0.0008942
    2  -0.0003502   0.0013311  -0.0007881  -0.0007871  -0.0014323   0.0002872
    3  -0.0000001   0.0000001  -0.0005419   0.0005423   0.0000009  -0.0000001
           31          32
    1   0.0002376   0.0002378
    2   0.0000314   0.0000311
    3   0.0008249  -0.0008246
 Max gradient component =       1.509E-02
 RMS gradient           =       4.136E-03
 Gradient time:  CPU 7.97 s  wall 2.00 s
 Geometry Optimization Parameters
   NAtoms,    NIC,     NZ,  NCons,   NDum,   NFix, NCnnct, MaxDiis
       32     199       0       0       0       0       0       0

 Cartesian Hessian Update
 Hessian Updated using BFGS Update


** GEOMETRY OPTIMIZATION IN DELOCALIZED INTERNAL COORDINATES **
   Searching for a Minimum

   Optimization Cycle:   2

                       Coordinates (Angstroms)
     ATOM                X               Y               Z
      1  C         7.1119710317   -0.8929545570   -0.0002991254
      2  C         6.0107695914   -0.0894510162   -0.0001460996
      3  C         4.6298572619   -0.5836061550   -0.0000427031
      4  C         3.5210547270    0.2302013442    0.0000683655
      5  C         2.1557124254   -0.2861763338    0.0001527601
      6  C         0.9748457757    0.4324292313    0.0001670206
      7  H         8.1228733614   -0.4782371627   -0.0003756874
      8  H         7.0226344278   -1.9822901904   -0.0003453677
      9  H         6.1404402792    0.9981040916   -0.0001034420
     10  H         4.5046798087   -1.6713525354   -0.0000631971
     11  H         2.0879682094   -1.3798845244    0.0001854813
     12  C        -6.5003031630   -0.8656614151   -0.0002033336
     13  C        -5.1618183374   -1.1107913165    0.0000001600
     14  H        -7.2170934365   -1.6907644794   -0.0001132386
     15  H        -6.9261467951    0.1393643231   -0.0004492964
     16  C        -4.0737993395   -0.1131324655   -0.0000828248
     17  C        -2.7713638914   -0.5746443416    0.0001414589
     18  H        -4.8289223427   -2.1552024329    0.0002603055
     19  C        -1.5564607200    0.2372490706    0.0001005450
     20  C        -0.2948467374   -0.3114397681    0.0002160074
     21  H        -2.6044878048   -1.6572725779    0.0003794184
     22  H        -1.6762972600    1.3209998488   -0.0000285125
     23  H        -0.1984251906   -1.4028599817    0.0003467301
     24  H         3.6709942947    1.3122020901    0.0000854242
     25  C        -4.4043066466    1.3771386540   -0.0004067786
     26  H        -5.4867281146    1.5732692767   -0.0005510874
     27  H        -3.9866267483    1.8755400365   -0.8932453336
     28  H        -3.9868088649    1.8758931151    0.8923203234
     29  C         0.9021243813    1.9525096262    0.0001273484
     30  H         1.8919426721    2.4280511695    0.0001151945
     31  H         0.3602391681    2.3205313438    0.8912076303
     32  H         0.3602462572    2.3204886022   -0.8909750790
   Point Group: c1    Number of degrees of freedom:    90


   Energy is   -543.849978299

 Hessian Updated using BFGS Update

 66 Hessian modes will be used to form the next step
  Hessian Eigenvalues:
     0.006925    0.006941    0.009474    0.009676    0.010894    0.010973
     0.012102    0.013432    0.013754    0.019646    0.019666    0.019762
     0.019838    0.020184    0.020357    0.021232    0.021456    0.028092
     0.028417    0.029658    0.030198    0.030384    0.030384    0.031005
     0.031005    0.068193    0.069358    0.073739    0.074298    0.155171
     0.167029    0.208050    0.224997    0.249048    0.264492    0.294093
     0.306661    0.307885    0.325413    0.325648    0.325815    0.325860
     0.327383    0.331761    0.333942    0.334973    0.338150    0.346826
     0.350120    0.350332    0.350512    0.350784    0.351370    0.351982
     0.352787    0.353541    0.354938    0.356579    0.358128    0.361082
     0.534166    0.543546    0.560129    0.571356    0.575797    0.609271

 Minimum Search - Taking Simple RFO Step
 Searching for Lamda that Minimizes Along All modes
 Value Taken    Lamda =  -0.00210459
 Step Taken.  Stepsize is  0.095503

                             Maximum     Tolerance    Cnvgd?
         Gradient           0.010910      0.000300      NO
         Displacement       0.044096      0.001200      NO
         Energy change     -0.013495      0.000001      NO


 New Cartesian Coordinates Obtained by Inverse Iteration

 Displacement from previous Coordinates is:  0.298516
 ----------------------------------------------------------------
             Standard Nuclear Orientation (Angstroms)
    I     Atom           X                Y                Z
 ----------------------------------------------------------------
    1      C       7.0987143402    -0.8605411032     0.0000008297
    2      C       5.9804079597    -0.0805892061    -0.0000208302
    3      C       4.6190108025    -0.5864666981     0.0000091133
    4      C       3.4936655668     0.2093817682    -0.0000233233
    5      C       2.1488202573    -0.3054468696     0.0000042558
    6      C       0.9629731695     0.4144812051    -0.0000431829
    7      H       8.1028231715    -0.4298216126    -0.0000240431
    8      H       7.0353941680    -1.9536446232     0.0000451301
    9      H       6.0882615849     1.0125399241    -0.0000642022
   10      H       4.5033178709    -1.6786643181     0.0000614354
   11      H       2.0701875115    -1.4011339442     0.0000699028
   12      C      -6.4993869128    -0.8621711008    -0.0000366982
   13      C      -5.1567635138    -1.0925321774    -0.0000414490
   14      H      -7.2116794238    -1.6912931810    -0.0000186622
   15      H      -6.9351870079     0.1399374475    -0.0000442072
   16      C      -4.0664820415    -0.1099878404    -0.0000701559
   17      C      -2.7639983022    -0.5782838256    -0.0000251991
   18      H      -4.8164556703    -2.1369031700    -0.0000250547
   19      C      -1.5651382611     0.2218142178    -0.0000529273
   20      C      -0.2942295711    -0.3173874975    -0.0000122042
   21      H      -2.6112142445    -1.6659519899     0.0000421050
   22      H      -1.6884651341     1.3091146506    -0.0001089036
   23      H      -0.1997018551    -1.4116810572     0.0000498181
   24      H       3.6307013248     1.2972272860    -0.0000699455
   25      C      -4.3709258449     1.3863836873    -0.0001379581
   26      H      -5.4503501093     1.5881327440    -0.0001615031
   27      H      -3.9440670799     1.8846478398    -0.8886574435
   28      H      -3.9440935511     1.8847187690     0.8883545616
   29      C       0.9130229408     1.9376687612    -0.0001225237
   30      H       1.9140452722     2.3914307214    -0.0001090106
   31      H       0.3753204820     2.3166782969     0.8872941476
   32      H       0.3753903809     2.3165934663    -0.8876188050
 ----------------------------------------------------------------
 Molecular Point Group                 C1    NOp =  1
 Largest Abelian Subgroup              C1    NOp =  1
 Nuclear Repulsion Energy =   726.6040232686 hartrees
 There are       51 alpha and       51 beta electrons
 Applying Cartesian multipole field
    Component          Value
    ---------          -----
     (2,0,0)        1.00000E-12
     (0,2,0)        2.00000E-11
     (0,0,2)       -3.00000E-10
 Nucleus-field energy     =     0.0000000109 hartrees
 Requested basis set is 6-31G
 There are 78 shells and 162 basis functions
 A cutoff of  1.0D-11 yielded   1877 shell pairs
 There are      8900 function pairs
 Smallest overlap matrix eigenvalue = 1.83E-03
 Guess MOs from SCF MO coefficient file

 -----------------------------------------------------------------------
  General SCF calculation program by
  Eric Jon Sundstrom, Paul Horn, Yuezhi Mao, Dmitri Zuev, Alec White,
  David Stuck, Shaama M.S., Shane Yost, Joonho Lee, David Small,
  Daniel Levine, Susi Lehtola, Hugh Burton, Evgeny Epifanovsky
 -----------------------------------------------------------------------
 Exchange:  B88      Correlation:  LYP
 Using SG-1 standard quadrature grid
 using 4 threads for integral computing
 -------------------------------------------------------
 OpenMP Integral computing Module                
 Release: version 1.0, May 2013, Q-Chem Inc. Pittsburgh 
 -------------------------------------------------------
 -------------------------------------------------------
 OpenMP BLAS3 based DFT computing Module                
 Release: version 1.0, May 2013, Q-Chem Inc. Pittsburgh 
 -------------------------------------------------------
 A restricted SCF calculation will be
 performed using DIIS
 SCF converges when DIIS error is below 1.0e-08
 ---------------------------------------
  Cycle       Energy         DIIS error
 ---------------------------------------
    1    -543.8500842034      3.76e-04  
    2    -543.8510600785      9.25e-05  
    3    -543.8508522224      2.32e-04  
    4    -543.8510882215      3.71e-05  
    5    -543.8510932925      2.08e-05  
    6    -543.8510949912      6.19e-06  
    7    -543.8510951194      2.65e-06  
    8    -543.8510951529      6.30e-07  
    9    -543.8510951548      2.07e-07  
   10    -543.8510951549      8.69e-08  
   11    -543.8510951549      2.63e-08  
   12    -543.8510951549      1.41e-08  
   13    -543.8510951549      2.36e-09  Convergence criterion met
 ---------------------------------------
 SCF time:   CPU 48.49s  wall 12.00s 
 SCF   energy in the final basis set =     -543.8510951549
 Total energy in the final basis set =     -543.8510951549
 
 --------------------------------------------------------------
 
                    Orbital Energies (a.u.)
 --------------------------------------------------------------
 
 Alpha MOs
 -- Occupied --
 -9.935  -9.932  -9.926  -9.925  -9.924  -9.923  -9.922  -9.922
 -9.921  -9.918  -9.917  -9.915  -9.915  -9.911  -0.747  -0.734
 -0.716  -0.685  -0.661  -0.643  -0.615  -0.606  -0.563  -0.525
 -0.492  -0.484  -0.470  -0.455  -0.432  -0.413  -0.409  -0.388
 -0.377  -0.366  -0.363  -0.361  -0.345  -0.335  -0.333  -0.325
 -0.313  -0.310  -0.301  -0.293  -0.290  -0.286  -0.277  -0.253
 -0.231  -0.190  -0.150
 -- Virtual --
 -0.086  -0.038   0.009   0.042   0.064   0.068   0.077   0.081
  0.084   0.088   0.102   0.103   0.116   0.120   0.129   0.134
  0.147   0.162   0.163   0.164   0.174   0.180   0.199   0.202
  0.210   0.214   0.241   0.283   0.307   0.325   0.344   0.363
  0.365   0.373   0.382   0.402   0.418   0.471   0.475   0.483
  0.487   0.504   0.517   0.523   0.523   0.535   0.549   0.550
  0.558   0.580   0.585   0.590   0.596   0.601   0.615   0.619
  0.626   0.631   0.654   0.657   0.662   0.662   0.676   0.686
  0.708   0.711   0.720   0.734   0.751   0.779   0.790   0.810
  0.812   0.824   0.834   0.855   0.860   0.877   0.879   0.883
  0.893   0.906   0.911   0.919   0.937   0.951   0.959   0.967
  0.988   1.014   1.032   1.044   1.061   1.076   1.092   1.104
  1.121   1.147   1.163   1.190   1.260   1.261   1.279   1.295
  1.328   1.352   1.381   1.466   1.497   1.548   1.576
 --------------------------------------------------------------
 
          Ground-State Mulliken Net Atomic Charges

     Atom                 Charge (a.u.)
  ----------------------------------------
      1 C                    -0.282996
      2 C                    -0.038685
      3 C                    -0.090288
      4 C                    -0.084371
      5 C                    -0.159608
      6 C                     0.155197
      7 H                     0.108734
      8 H                     0.108558
      9 H                     0.093649
     10 H                     0.092544
     11 H                     0.090885
     12 C                    -0.288455
     13 C                    -0.074445
     14 H                     0.107236
     15 H                     0.109193
     16 C                     0.145766
     17 C                    -0.153233
     18 H                     0.091693
     19 C                    -0.076707
     20 C                    -0.141849
     21 H                     0.088651
     22 H                     0.094370
     23 H                     0.089383
     24 H                     0.095989
     25 C                    -0.452242
     26 H                     0.129533
     27 H                     0.140650
     28 H                     0.140649
     29 C                    -0.451325
     30 H                     0.129764
     31 H                     0.140879
     32 H                     0.140880
  ----------------------------------------
  Sum of atomic charges =    -0.000000

 -----------------------------------------------------------------
                    Cartesian Multipole Moments
 -----------------------------------------------------------------
    Charge (ESU x 10^10)
                -0.0000
    Dipole Moment (Debye)
         X       0.0080      Y       0.7592      Z      -0.0000
       Tot       0.7592
    Quadrupole Moments (Debye-Ang)
        XX     -83.4964     XY      -1.0408     YY     -78.7027
        XZ       0.0000     YZ      -0.0006     ZZ     -92.4286
    Octopole Moments (Debye-Ang^2)
       XXX       6.4243    XXY       9.6727    XYY       1.4627
       YYY      -3.8505    XXZ       0.0032    XYZ      -0.0005
       YYZ       0.0039    XZZ      -4.0612    YZZ       4.9143
       ZZZ       0.0112
    Hexadecapole Moments (Debye-Ang^3)
      XXXX   -8826.5245   XXXY      18.2467   XXYY   -1531.4452
      XYYY      29.4346   YYYY    -596.4797   XXXZ      -0.0266
      XXYZ      -0.0061   XYYZ      -0.0073   YYYZ       0.0102
      XXZZ   -1723.5261   XYZZ       2.5797   YYZZ    -122.1626
      XZZZ      -0.0243   YZZZ       0.0101   ZZZZ    -109.2108
 -----------------------------------------------------------------
 Calculating analytic gradient of the SCF energy
 Gradient of SCF Energy
            1           2           3           4           5           6
    1   0.0005147   0.0004482  -0.0020307   0.0011388  -0.0038518   0.0053471
    2  -0.0008337   0.0003633  -0.0000831   0.0002309   0.0007434   0.0004032
    3  -0.0000001  -0.0000001  -0.0000002  -0.0000005  -0.0000000  -0.0000005
            7           8           9          10          11          12
    1   0.0003038  -0.0000387  -0.0006283   0.0008984   0.0010091  -0.0007198
    2   0.0001224  -0.0002374   0.0001611  -0.0001569  -0.0002536   0.0002743
    3  -0.0000000   0.0000001   0.0000001   0.0000002   0.0000004  -0.0000002
           13          14          15          16          17          18
    1  -0.0002215  -0.0004122  -0.0002154   0.0025851  -0.0026464   0.0005456
    2  -0.0008569  -0.0002861   0.0000179   0.0004381   0.0003400   0.0001899
    3   0.0000003  -0.0000001   0.0000003  -0.0000006   0.0000000  -0.0000003
           19          20          21          22          23          24
    1   0.0019368  -0.0035583   0.0008441  -0.0010150   0.0009525  -0.0009654
    2   0.0000847  -0.0007394  -0.0000284   0.0000553   0.0000396   0.0005056
    3  -0.0000004  -0.0000002   0.0000006   0.0000004   0.0000002   0.0000004
           25          26          27          28          29          30
    1   0.0000275   0.0005021  -0.0001037  -0.0001037  -0.0013532   0.0005251
    2   0.0002580  -0.0000606   0.0000134   0.0000131  -0.0007598  -0.0000382
    3  -0.0000004   0.0000003   0.0002732  -0.0002730   0.0000007  -0.0000003
           31          32
    1   0.0001424   0.0001429
    2   0.0000397   0.0000402
    3  -0.0002902   0.0002900
 Max gradient component =       5.347E-03
 RMS gradient           =       9.875E-04
 Gradient time:  CPU 7.88 s  wall 1.97 s
 Geometry Optimization Parameters
   NAtoms,    NIC,     NZ,  NCons,   NDum,   NFix, NCnnct, MaxDiis
       32     199       0       0       0       0       0       0

 Cartesian Hessian Update
 Hessian Updated using BFGS Update


** GEOMETRY OPTIMIZATION IN DELOCALIZED INTERNAL COORDINATES **
   Searching for a Minimum

   Optimization Cycle:   3

                       Coordinates (Angstroms)
     ATOM                X               Y               Z
      1  C         7.0987143402   -0.8605411032    0.0000008297
      2  C         5.9804079597   -0.0805892061   -0.0000208302
      3  C         4.6190108025   -0.5864666981    0.0000091133
      4  C         3.4936655668    0.2093817682   -0.0000233233
      5  C         2.1488202573   -0.3054468696    0.0000042558
      6  C         0.9629731695    0.4144812051   -0.0000431829
      7  H         8.1028231715   -0.4298216126   -0.0000240431
      8  H         7.0353941680   -1.9536446232    0.0000451301
      9  H         6.0882615849    1.0125399241   -0.0000642022
     10  H         4.5033178709   -1.6786643181    0.0000614354
     11  H         2.0701875115   -1.4011339442    0.0000699028
     12  C        -6.4993869128   -0.8621711008   -0.0000366982
     13  C        -5.1567635138   -1.0925321774   -0.0000414490
     14  H        -7.2116794238   -1.6912931810   -0.0000186622
     15  H        -6.9351870079    0.1399374475   -0.0000442072
     16  C        -4.0664820415   -0.1099878404   -0.0000701559
     17  C        -2.7639983022   -0.5782838256   -0.0000251991
     18  H        -4.8164556703   -2.1369031700   -0.0000250547
     19  C        -1.5651382611    0.2218142178   -0.0000529273
     20  C        -0.2942295711   -0.3173874975   -0.0000122042
     21  H        -2.6112142445   -1.6659519899    0.0000421050
     22  H        -1.6884651341    1.3091146506   -0.0001089036
     23  H        -0.1997018551   -1.4116810572    0.0000498181
     24  H         3.6307013248    1.2972272860   -0.0000699455
     25  C        -4.3709258449    1.3863836873   -0.0001379581
     26  H        -5.4503501093    1.5881327440   -0.0001615031
     27  H        -3.9440670799    1.8846478398   -0.8886574435
     28  H        -3.9440935511    1.8847187690    0.8883545616
     29  C         0.9130229408    1.9376687612   -0.0001225237
     30  H         1.9140452722    2.3914307214   -0.0001090106
     31  H         0.3753204820    2.3166782969    0.8872941476
     32  H         0.3753903809    2.3165934663   -0.8876188050
   Point Group: c1    Number of degrees of freedom:    90


   Energy is   -543.851095155

 Hessian Updated using BFGS Update

 69 Hessian modes will be used to form the next step
  Hessian Eigenvalues:
     0.006925    0.006941    0.009474    0.009676    0.010894    0.010973
     0.012102    0.013432    0.013754    0.019646    0.019666    0.019762
     0.019838    0.020184    0.020357    0.021232    0.021456    0.028092
     0.028417    0.029658    0.030198    0.030384    0.030384    0.031005
     0.031005    0.068193    0.069358    0.073750    0.074194    0.138570
     0.160599    0.168311    0.209638    0.223027    0.227075    0.246582
     0.250255    0.265494    0.286767    0.306979    0.308301    0.325413
     0.325632    0.325815    0.326088    0.327216    0.333819    0.334496
     0.338095    0.344718    0.347816    0.350129    0.350365    0.350486
     0.350782    0.351669    0.352001    0.352812    0.353636    0.354346
     0.356795    0.358630    0.360714    0.535895    0.550680    0.559986
     0.572798    0.575844    0.607412

 Minimum Search - Taking Simple RFO Step
 Searching for Lamda that Minimizes Along All modes
 Value Taken    Lamda =  -0.00017563
 Step Taken.  Stepsize is  0.031120

                             Maximum     Tolerance    Cnvgd?
         Gradient           0.002712      0.000300      NO
         Displacement       0.016075      0.001200      NO
         Energy change     -0.001117      0.000001      NO


 New Cartesian Coordinates Obtained by Inverse Iteration

 Displacement from previous Coordinates is:  0.059041
 ----------------------------------------------------------------
             Standard Nuclear Orientation (Angstroms)
    I     Atom           X                Y                Z
 ----------------------------------------------------------------
    1      C       7.1024427429    -0.8574644819     0.0000092720
    2      C       5.9821586868    -0.0819918642    -0.0000297728
    3      C       4.6231895153    -0.5891643368     0.0000060876
    4      C       3.4968609942     0.2061387023    -0.0000354436
    5      C       2.1515255386    -0.3041449854    -0.0000039439
    6      C       0.9606706917     0.4146317441    -0.0000377213
    7      H       8.1047579908    -0.4237613339    -0.0000216815
    8      H       7.0435699223    -1.9506244070     0.0000724378
    9      H       6.0915463415     1.0111408892    -0.0000938847
   10      H       4.5015481015    -1.6809221864     0.0000696954
   11      H       2.0640235122    -1.3991269262     0.0000504593
   12      C      -6.4984090666    -0.8568137177    -0.0000533669
   13      C      -5.1576325381    -1.0917149749    -0.0000332337
   14      H      -7.2133701000    -1.6827070532    -0.0000303785
   15      H      -6.9293764672     0.1473893874    -0.0000921673
   16      C      -4.0682295275    -0.1124341549    -0.0000584484
   17      C      -2.7630810220    -0.5797504513    -0.0000207123
   18      H      -4.8231302457    -2.1382306231     0.0000086772
   19      C      -1.5647671435     0.2188909542    -0.0000457927
   20      C      -0.2914678042    -0.3179910773    -0.0000064290
   21      H      -2.6168967675    -1.6683733944     0.0000301331
   22      H      -1.6815640018     1.3069995598    -0.0001055249
   23      H      -0.2018257547    -1.4128888451     0.0000486984
   24      H       3.6423414439     1.2926863600    -0.0000988244
   25      C      -4.3747258823     1.3833131453    -0.0001288831
   26      H      -5.4553264994     1.5824392528    -0.0001586212
   27      H      -3.9481935698     1.8820808483    -0.8890048437
   28      H      -3.9482253001     1.8821578215     0.8887191927
   29      C       0.9110408271     1.9393131211    -0.0001131351
   30      H       1.9103618007     2.3950609669    -0.0001132503
   31      H       0.3720319781     2.3170979277     0.8874933154
   32      H       0.3720698828     2.3170147035    -0.8877788425
 ----------------------------------------------------------------
 Molecular Point Group                 C1    NOp =  1
 Largest Abelian Subgroup              C1    NOp =  1
 Nuclear Repulsion Energy =   726.5392037572 hartrees
 There are       51 alpha and       51 beta electrons
 Applying Cartesian multipole field
    Component          Value
    ---------          -----
     (2,0,0)        1.00000E-12
     (0,2,0)        2.00000E-11
     (0,0,2)       -3.00000E-10
 Nucleus-field energy     =     0.0000000109 hartrees
 Requested basis set is 6-31G
 There are 78 shells and 162 basis functions
 A cutoff of  1.0D-11 yielded   1875 shell pairs
 There are      8898 function pairs
 Smallest overlap matrix eigenvalue = 1.83E-03
 Guess MOs from SCF MO coefficient file

 -----------------------------------------------------------------------
  General SCF calculation program by
  Eric Jon Sundstrom, Paul Horn, Yuezhi Mao, Dmitri Zuev, Alec White,
  David Stuck, Shaama M.S., Shane Yost, Joonho Lee, David Small,
  Daniel Levine, Susi Lehtola, Hugh Burton, Evgeny Epifanovsky
 -----------------------------------------------------------------------
 Exchange:  B88      Correlation:  LYP
 Using SG-1 standard quadrature grid
 using 4 threads for integral computing
 -------------------------------------------------------
 OpenMP Integral computing Module                
 Release: version 1.0, May 2013, Q-Chem Inc. Pittsburgh 
 -------------------------------------------------------
 -------------------------------------------------------
 OpenMP BLAS3 based DFT computing Module                
 Release: version 1.0, May 2013, Q-Chem Inc. Pittsburgh 
 -------------------------------------------------------
 A restricted SCF calculation will be
 performed using DIIS
 SCF converges when DIIS error is below 1.0e-08
 ---------------------------------------
  Cycle       Energy         DIIS error
 ---------------------------------------
    1    -543.8511384887      8.56e-05  
    2    -543.8511824589      2.94e-05  
    3    -543.8511753755      5.07e-05  
    4    -543.8511843615      1.60e-05  
    5    -543.8511856048      3.95e-06  
    6    -543.8511856745      1.38e-06  
    7    -543.8511856812      4.31e-07  
    8    -543.8511856820      1.67e-07  
    9    -543.8511856821      6.16e-08  
   10    -543.8511856821      2.40e-08  
   11    -543.8511856821      7.48e-09  Convergence criterion met
 ---------------------------------------
 SCF time:   CPU 39.74s  wall 10.00s 
 SCF   energy in the final basis set =     -543.8511856821
 Total energy in the final basis set =     -543.8511856821
 
 --------------------------------------------------------------
 
                    Orbital Energies (a.u.)
 --------------------------------------------------------------
 
 Alpha MOs
 -- Occupied --
 -9.936  -9.932  -9.926  -9.925  -9.924  -9.923  -9.922  -9.922
 -9.921  -9.918  -9.917  -9.915  -9.915  -9.911  -0.746  -0.734
 -0.716  -0.685  -0.661  -0.642  -0.615  -0.606  -0.564  -0.525
 -0.492  -0.485  -0.470  -0.455  -0.432  -0.413  -0.409  -0.388
 -0.378  -0.366  -0.363  -0.361  -0.345  -0.335  -0.333  -0.325
 -0.313  -0.310  -0.300  -0.293  -0.290  -0.287  -0.277  -0.253
 -0.231  -0.190  -0.150
 -- Virtual --
 -0.086  -0.038   0.009   0.042   0.064   0.068   0.077   0.081
  0.084   0.088   0.102   0.103   0.116   0.120   0.129   0.134
  0.147   0.161   0.164   0.164   0.174   0.180   0.199   0.202
  0.210   0.214   0.241   0.283   0.307   0.325   0.344   0.363
  0.365   0.373   0.383   0.402   0.418   0.471   0.475   0.483
  0.487   0.504   0.517   0.523   0.523   0.535   0.549   0.550
  0.558   0.580   0.586   0.590   0.596   0.601   0.614   0.619
  0.626   0.631   0.654   0.657   0.661   0.662   0.676   0.686
  0.708   0.710   0.720   0.733   0.751   0.779   0.790   0.810
  0.812   0.824   0.834   0.855   0.860   0.877   0.879   0.883
  0.893   0.906   0.912   0.919   0.936   0.951   0.959   0.968
  0.988   1.014   1.032   1.043   1.061   1.076   1.093   1.103
  1.122   1.147   1.163   1.189   1.260   1.261   1.278   1.296
  1.329   1.353   1.383   1.465   1.497   1.547   1.575
 --------------------------------------------------------------
 
          Ground-State Mulliken Net Atomic Charges

     Atom                 Charge (a.u.)
  ----------------------------------------
      1 C                    -0.282499
      2 C                    -0.039516
      3 C                    -0.088944
      4 C                    -0.084597
      5 C                    -0.160050
      6 C                     0.155653
      7 H                     0.108639
      8 H                     0.108519
      9 H                     0.093726
     10 H                     0.092577
     11 H                     0.090506
     12 C                    -0.288271
     13 C                    -0.074523
     14 H                     0.107181
     15 H                     0.109318
     16 C                     0.146069
     17 C                    -0.153340
     18 H                     0.091842
     19 C                    -0.076825
     20 C                    -0.142135
     21 H                     0.088469
     22 H                     0.094175
     23 H                     0.089503
     24 H                     0.095758
     25 C                    -0.451946
     26 H                     0.129307
     27 H                     0.140577
     28 H                     0.140578
     29 C                    -0.451293
     30 H                     0.130049
     31 H                     0.140748
     32 H                     0.140748
  ----------------------------------------
  Sum of atomic charges =    -0.000000

 -----------------------------------------------------------------
                    Cartesian Multipole Moments
 -----------------------------------------------------------------
    Charge (ESU x 10^10)
                -0.0000
    Dipole Moment (Debye)
         X      -0.0051      Y       0.7544      Z      -0.0001
       Tot       0.7545
    Quadrupole Moments (Debye-Ang)
        XX     -83.3694     XY      -0.9578     YY     -78.7286
        XZ       0.0001     YZ      -0.0007     ZZ     -92.4254
    Octopole Moments (Debye-Ang^2)
       XXX       6.2299    XXY       9.6472    XYY       1.3710
       YYY      -3.8148    XXZ       0.0023    XYZ      -0.0006
       YYZ       0.0039    XZZ      -4.1224    YZZ       4.9208
       ZZZ       0.0110
    Hexadecapole Moments (Debye-Ang^3)
      XXXX   -8827.2589   XXXY      21.3496   XXYY   -1532.5978
      XYYY      30.2890   YYYY    -595.8258   XXXZ      -0.0212
      XXYZ      -0.0101   XYYZ      -0.0071   YYYZ       0.0096
      XXZZ   -1724.3570   XYZZ       2.7840   YYZZ    -122.0403
      XZZZ      -0.0232   YZZZ       0.0098   ZZZZ    -109.2207
 -----------------------------------------------------------------
 Calculating analytic gradient of the SCF energy
 Gradient of SCF Energy
            1           2           3           4           5           6
    1  -0.0000890  -0.0000457   0.0000025   0.0004211  -0.0005896   0.0005728
    2   0.0001980  -0.0004871   0.0007903  -0.0006277   0.0003352  -0.0003566
    3   0.0000000  -0.0000000   0.0000000  -0.0000000  -0.0000001   0.0000003
            7           8           9          10          11          12
    1   0.0000466  -0.0000116  -0.0001113   0.0000799   0.0000958   0.0003456
    2  -0.0000581  -0.0000872   0.0001521  -0.0001688  -0.0000774  -0.0001748
    3  -0.0000000  -0.0000000  -0.0000000  -0.0000000  -0.0000001   0.0000000
           13          14          15          16          17          18
    1  -0.0003626  -0.0000702  -0.0000094   0.0000470  -0.0002899   0.0002450
    2   0.0005633  -0.0000044   0.0001675  -0.0004384   0.0003415  -0.0000366
    3  -0.0000003  -0.0000000  -0.0000000   0.0000004   0.0000001   0.0000000
           19          20          21          22          23          24
    1   0.0005465  -0.0005765   0.0001115  -0.0000945   0.0001934  -0.0000849
    2  -0.0005898   0.0006635  -0.0001190   0.0001297  -0.0000833   0.0000593
    3   0.0000001   0.0000002  -0.0000001  -0.0000002  -0.0000001   0.0000000
           25          26          27          28          29          30
    1  -0.0000123  -0.0000917   0.0000169   0.0000171  -0.0002601  -0.0000295
    2  -0.0000701  -0.0002059   0.0000634   0.0000634  -0.0000879   0.0000934
    3  -0.0000001  -0.0000001   0.0000602  -0.0000601   0.0000001  -0.0000000
           31          32
    1  -0.0000064  -0.0000064
    2   0.0000261   0.0000264
    3  -0.0001237   0.0001235
 Max gradient component =       7.903E-04
 RMS gradient           =       2.350E-04
 Gradient time:  CPU 9.62 s  wall 2.41 s
 Geometry Optimization Parameters
   NAtoms,    NIC,     NZ,  NCons,   NDum,   NFix, NCnnct, MaxDiis
       32     199       0       0       0       0       0       0

 Cartesian Hessian Update
 Hessian Updated using BFGS Update


** GEOMETRY OPTIMIZATION IN DELOCALIZED INTERNAL COORDINATES **
   Searching for a Minimum

   Optimization Cycle:   4

                       Coordinates (Angstroms)
     ATOM                X               Y               Z
      1  C         7.1024427429   -0.8574644819    0.0000092720
      2  C         5.9821586868   -0.0819918642   -0.0000297728
      3  C         4.6231895153   -0.5891643368    0.0000060876
      4  C         3.4968609942    0.2061387023   -0.0000354436
      5  C         2.1515255386   -0.3041449854   -0.0000039439
      6  C         0.9606706917    0.4146317441   -0.0000377213
      7  H         8.1047579908   -0.4237613339   -0.0000216815
      8  H         7.0435699223   -1.9506244070    0.0000724378
      9  H         6.0915463415    1.0111408892   -0.0000938847
     10  H         4.5015481015   -1.6809221864    0.0000696954
     11  H         2.0640235122   -1.3991269262    0.0000504593
     12  C        -6.4984090666   -0.8568137177   -0.0000533669
     13  C        -5.1576325381   -1.0917149749   -0.0000332337
     14  H        -7.2133701000   -1.6827070532   -0.0000303785
     15  H        -6.9293764672    0.1473893874   -0.0000921673
     16  C        -4.0682295275   -0.1124341549   -0.0000584484
     17  C        -2.7630810220   -0.5797504513   -0.0000207123
     18  H        -4.8231302457   -2.1382306231    0.0000086772
     19  C        -1.5647671435    0.2188909542   -0.0000457927
     20  C        -0.2914678042   -0.3179910773   -0.0000064290
     21  H        -2.6168967675   -1.6683733944    0.0000301331
     22  H        -1.6815640018    1.3069995598   -0.0001055249
     23  H        -0.2018257547   -1.4128888451    0.0000486984
     24  H         3.6423414439    1.2926863600   -0.0000988244
     25  C        -4.3747258823    1.3833131453   -0.0001288831
     26  H        -5.4553264994    1.5824392528   -0.0001586212
     27  H        -3.9481935698    1.8820808483   -0.8890048437
     28  H        -3.9482253001    1.8821578215    0.8887191927
     29  C         0.9110408271    1.9393131211   -0.0001131351
     30  H         1.9103618007    2.3950609669   -0.0001132503
     31  H         0.3720319781    2.3170979277    0.8874933154
     32  H         0.3720698828    2.3170147035   -0.8877788425
   Point Group: c1    Number of degrees of freedom:    90


   Energy is   -543.851185682

 Hessian Updated using BFGS Update

 67 Hessian modes will be used to form the next step
  Hessian Eigenvalues:
     0.006925    0.006941    0.009474    0.009676    0.010894    0.010973
     0.012102    0.013432    0.013754    0.019646    0.019666    0.019762
     0.019838    0.020357    0.021232    0.028092    0.028417    0.029658
     0.030198    0.031005    0.068193    0.069358    0.073697    0.074497
     0.126469    0.159216    0.160799    0.163998    0.211076    0.218975
     0.222349    0.226688    0.245407    0.249931    0.251386    0.276489
     0.290277    0.307497    0.308269    0.325364    0.325413    0.325743
     0.325815    0.327371    0.333803    0.334631    0.338203    0.347029
     0.349949    0.350015    0.350341    0.350585    0.350981    0.351813
     0.352625    0.353173    0.353896    0.356204    0.356635    0.359039
     0.365253    0.532377    0.549642    0.559695    0.572039    0.579804
     0.611335

 Minimum Search - Taking Simple RFO Step
 Searching for Lamda that Minimizes Along All modes
 Value Taken    Lamda =  -0.00001197
 Step Taken.  Stepsize is  0.007840

                             Maximum     Tolerance    Cnvgd?
         Gradient           0.000828      0.000300      NO
         Displacement       0.002879      0.001200      NO
         Energy change     -0.000091      0.000001      NO


 New Cartesian Coordinates Obtained by Inverse Iteration

 Displacement from previous Coordinates is:  0.040129
 ----------------------------------------------------------------
             Standard Nuclear Orientation (Angstroms)
    I     Atom           X                Y                Z
 ----------------------------------------------------------------
    1      C       7.1037554336    -0.8524348343     0.0000263312
    2      C       5.9815321339    -0.0796787758    -0.0000206499
    3      C       4.6232393290    -0.5897971257     0.0000071579
    4      C       3.4959520309     0.2047616282    -0.0000404323
    5      C       2.1514719234    -0.3071929919    -0.0000155191
    6      C       0.9599097429     0.4113980319    -0.0000525701
    7      H       8.1046860388    -0.4156480105     0.0000013759
    8      H       7.0480574264    -1.9456108674     0.0000907846
    9      H       6.0895361929     1.0133943526    -0.0000852667
   10      H       4.5021351463    -1.6813748085     0.0000706669
   11      H       2.0636987105    -1.4020439289     0.0000390068
   12      C      -6.5006498566    -0.8561472854    -0.0000400032
   13      C      -5.1596307771    -1.0908912327    -0.0000308023
   14      H      -7.2148534835    -1.6825610596    -0.0000142413
   15      H      -6.9323454318     0.1474951021    -0.0000722455
   16      C      -4.0696977634    -0.1113212569    -0.0000619721
   17      C      -2.7646665668    -0.5798855164    -0.0000335925
   18      H      -4.8268177539    -2.1377994894     0.0000045517
   19      C      -1.5657105814     0.2178752732    -0.0000584494
   20      C      -0.2925372411    -0.3207867058    -0.0000246847
   21      H      -2.6204412212    -1.6685703628     0.0000135313
   22      H      -1.6804138690     1.3059962687    -0.0001095639
   23      H      -0.2054968564    -1.4157572054     0.0000269158
   24      H       3.6413002875     1.2912500051    -0.0001035147
   25      C      -4.3734202347     1.3852150858    -0.0001203220
   26      H      -5.4531504482     1.5887945109    -0.0001409642
   27      H      -3.9453049850     1.8823567871    -0.8891860164
   28      H      -3.9453250630     1.8824223004     0.8889182742
   29      C       0.9135213451     1.9361624739    -0.0001224225
   30      H       1.9141788999     2.3887762297    -0.0001241324
   31      H       0.3756869639     2.3149666024     0.8879708445
   32      H       0.3757188082     2.3148873758    -0.8882690085
 ----------------------------------------------------------------
 Molecular Point Group                 C1    NOp =  1
 Largest Abelian Subgroup              C1    NOp =  1
 Nuclear Repulsion Energy =   726.4752961245 hartrees
 There are       51 alpha and       51 beta electrons
 Applying Cartesian multipole field
    Component          Value
    ---------          -----
     (2,0,0)        1.00000E-12
     (0,2,0)        2.00000E-11
     (0,0,2)       -3.00000E-10
 Nucleus-field energy     =     0.0000000109 hartrees
 Requested basis set is 6-31G
 There are 78 shells and 162 basis functions
 A cutoff of  1.0D-11 yielded   1875 shell pairs
 There are      8898 function pairs
 Smallest overlap matrix eigenvalue = 1.83E-03
 Guess MOs from SCF MO coefficient file

 -----------------------------------------------------------------------
  General SCF calculation program by
  Eric Jon Sundstrom, Paul Horn, Yuezhi Mao, Dmitri Zuev, Alec White,
  David Stuck, Shaama M.S., Shane Yost, Joonho Lee, David Small,
  Daniel Levine, Susi Lehtola, Hugh Burton, Evgeny Epifanovsky
 -----------------------------------------------------------------------
 Exchange:  B88      Correlation:  LYP
 Using SG-1 standard quadrature grid
 using 4 threads for integral computing
 -------------------------------------------------------
 OpenMP Integral computing Module                
 Release: version 1.0, May 2013, Q-Chem Inc. Pittsburgh 
 -------------------------------------------------------
 -------------------------------------------------------
 OpenMP BLAS3 based DFT computing Module                
 Release: version 1.0, May 2013, Q-Chem Inc. Pittsburgh 
 -------------------------------------------------------
 A restricted SCF calculation will be
 performed using DIIS
 SCF converges when DIIS error is below 1.0e-08
 ---------------------------------------
  Cycle       Energy         DIIS error
 ---------------------------------------
    1    -543.8511816631      3.85e-05  
    2    -543.8511913758      5.01e-06  
    3    -543.8511905798      1.36e-05  
    4    -543.8511914217      3.42e-06  
    5    -543.8511914795      8.34e-07  
    6    -543.8511914821      3.33e-07  
    7    -543.8511914825      9.57e-08  
    8    -543.8511914825      3.52e-08  
    9    -543.8511914825      1.27e-08  
   10    -543.8511914825      6.83e-09  Convergence criterion met
 ---------------------------------------
 SCF time:   CPU 36.05s  wall 9.00s 
 SCF   energy in the final basis set =     -543.8511914825
 Total energy in the final basis set =     -543.8511914825
 
 --------------------------------------------------------------
 
                    Orbital Energies (a.u.)
 --------------------------------------------------------------
 
 Alpha MOs
 -- Occupied --
 -9.936  -9.932  -9.926  -9.925  -9.924  -9.923  -9.922  -9.922
 -9.921  -9.918  -9.917  -9.915  -9.915  -9.911  -0.746  -0.734
 -0.716  -0.685  -0.661  -0.643  -0.615  -0.606  -0.564  -0.525
 -0.492  -0.485  -0.470  -0.455  -0.432  -0.413  -0.409  -0.388
 -0.378  -0.366  -0.363  -0.361  -0.345  -0.335  -0.333  -0.325
 -0.313  -0.310  -0.300  -0.293  -0.290  -0.287  -0.277  -0.253
 -0.231  -0.190  -0.150
 -- Virtual --
 -0.086  -0.038   0.009   0.042   0.064   0.068   0.077   0.081
  0.084   0.088   0.102   0.103   0.116   0.120   0.129   0.134
  0.147   0.161   0.164   0.164   0.174   0.180   0.198   0.203
  0.210   0.214   0.241   0.283   0.307   0.325   0.344   0.363
  0.365   0.373   0.383   0.401   0.418   0.471   0.475   0.483
  0.487   0.504   0.517   0.523   0.523   0.535   0.549   0.550
  0.558   0.580   0.586   0.590   0.595   0.601   0.614   0.619
  0.626   0.631   0.654   0.657   0.661   0.662   0.676   0.686
  0.708   0.710   0.720   0.733   0.751   0.779   0.790   0.810
  0.812   0.824   0.834   0.855   0.860   0.877   0.879   0.883
  0.893   0.906   0.911   0.919   0.937   0.951   0.959   0.968
  0.988   1.014   1.032   1.043   1.061   1.076   1.092   1.103
  1.122   1.147   1.163   1.189   1.259   1.261   1.278   1.296
  1.329   1.353   1.383   1.465   1.496   1.547   1.575
 --------------------------------------------------------------
 
          Ground-State Mulliken Net Atomic Charges

     Atom                 Charge (a.u.)
  ----------------------------------------
      1 C                    -0.282336
      2 C                    -0.039854
      3 C                    -0.088721
      4 C                    -0.084810
      5 C                    -0.159623
      6 C                     0.155038
      7 H                     0.108571
      8 H                     0.108505
      9 H                     0.093696
     10 H                     0.092622
     11 H                     0.090486
     12 C                    -0.287953
     13 C                    -0.074911
     14 H                     0.107131
     15 H                     0.109235
     16 C                     0.146227
     17 C                    -0.153486
     18 H                     0.091850
     19 C                    -0.076845
     20 C                    -0.141819
     21 H                     0.088511
     22 H                     0.094214
     23 H                     0.089531
     24 H                     0.095900
     25 C                    -0.452050
     26 H                     0.129392
     27 H                     0.140639
     28 H                     0.140640
     29 C                    -0.451224
     30 H                     0.130113
     31 H                     0.140667
     32 H                     0.140667
  ----------------------------------------
  Sum of atomic charges =    -0.000000

 -----------------------------------------------------------------
                    Cartesian Multipole Moments
 -----------------------------------------------------------------
    Charge (ESU x 10^10)
                -0.0000
    Dipole Moment (Debye)
         X      -0.0070      Y       0.7540      Z      -0.0000
       Tot       0.7540
    Quadrupole Moments (Debye-Ang)
        XX     -83.3919     XY      -0.9456     YY     -78.7212
        XZ       0.0000     YZ      -0.0007     ZZ     -92.4274
    Octopole Moments (Debye-Ang^2)
       XXX       6.1981    XXY       9.7299    XYY       1.3531
       YYY      -3.8162    XXZ       0.0032    XYZ      -0.0008
       YYZ       0.0041    XZZ      -4.0885    YZZ       4.9398
       ZZZ       0.0115
    Hexadecapole Moments (Debye-Ang^3)
      XXXX   -8831.6308   XXXY      21.2491   XXYY   -1532.4731
      XYYY      29.7511   YYYY    -595.1234   XXXZ      -0.0216
      XXYZ      -0.0100   XYYZ      -0.0072   YYYZ       0.0100
      XXZZ   -1724.9113   XYZZ       2.5731   YYZZ    -121.9005
      XZZZ      -0.0242   YZZZ       0.0103   ZZZZ    -109.2364
 -----------------------------------------------------------------
 Calculating analytic gradient of the SCF energy
 Gradient of SCF Energy
            1           2           3           4           5           6
    1  -0.0000190   0.0000383  -0.0000076   0.0000405   0.0000110   0.0000938
    2   0.0001186  -0.0000971   0.0002165  -0.0001959   0.0000980  -0.0000584
    3   0.0000000   0.0000000  -0.0000000   0.0000000  -0.0000001  -0.0000000
            7           8           9          10          11          12
    1  -0.0000011  -0.0000029   0.0000227  -0.0000362  -0.0000393   0.0000577
    2  -0.0000353  -0.0000016   0.0000229  -0.0000422  -0.0000133  -0.0001473
    3  -0.0000000  -0.0000000  -0.0000000  -0.0000000   0.0000000   0.0000000
           13          14          15          16          17          18
    1  -0.0001682   0.0000035  -0.0000158   0.0000843  -0.0000102   0.0000004
    2   0.0000992   0.0000354  -0.0000178  -0.0000844   0.0000502  -0.0000345
    3   0.0000000  -0.0000000   0.0000000  -0.0000001  -0.0000000  -0.0000000
           19          20          21          22          23          24
    1   0.0000852  -0.0001464  -0.0000279   0.0000117  -0.0000247  -0.0000099
    2  -0.0001719   0.0001876  -0.0000325   0.0000231  -0.0000338   0.0000569
    3   0.0000000   0.0000000   0.0000000   0.0000000   0.0000000  -0.0000000
           25          26          27          28          29          30
    1  -0.0000504   0.0000285   0.0000099   0.0000099   0.0000588   0.0000239
    2   0.0000504  -0.0000053   0.0000222   0.0000222  -0.0000488   0.0000281
    3   0.0000001  -0.0000000   0.0000098  -0.0000098   0.0000001   0.0000000
           31          32
    1  -0.0000102  -0.0000102
    2  -0.0000056  -0.0000056
    3   0.0000200  -0.0000200
 Max gradient component =       2.165E-04
 RMS gradient           =       5.959E-05
 Gradient time:  CPU 7.97 s  wall 2.00 s
 Geometry Optimization Parameters
   NAtoms,    NIC,     NZ,  NCons,   NDum,   NFix, NCnnct, MaxDiis
       32     199       0       0       0       0       0       0

 Cartesian Hessian Update
 Hessian Updated using BFGS Update


** GEOMETRY OPTIMIZATION IN DELOCALIZED INTERNAL COORDINATES **
   Searching for a Minimum

   Optimization Cycle:   5

                       Coordinates (Angstroms)
     ATOM                X               Y               Z
      1  C         7.1037554336   -0.8524348343    0.0000263312
      2  C         5.9815321339   -0.0796787758   -0.0000206499
      3  C         4.6232393290   -0.5897971257    0.0000071579
      4  C         3.4959520309    0.2047616282   -0.0000404323
      5  C         2.1514719234   -0.3071929919   -0.0000155191
      6  C         0.9599097429    0.4113980319   -0.0000525701
      7  H         8.1046860388   -0.4156480105    0.0000013759
      8  H         7.0480574264   -1.9456108674    0.0000907846
      9  H         6.0895361929    1.0133943526   -0.0000852667
     10  H         4.5021351463   -1.6813748085    0.0000706669
     11  H         2.0636987105   -1.4020439289    0.0000390068
     12  C        -6.5006498566   -0.8561472854   -0.0000400032
     13  C        -5.1596307771   -1.0908912327   -0.0000308023
     14  H        -7.2148534835   -1.6825610596   -0.0000142413
     15  H        -6.9323454318    0.1474951021   -0.0000722455
     16  C        -4.0696977634   -0.1113212569   -0.0000619721
     17  C        -2.7646665668   -0.5798855164   -0.0000335925
     18  H        -4.8268177539   -2.1377994894    0.0000045517
     19  C        -1.5657105814    0.2178752732   -0.0000584494
     20  C        -0.2925372411   -0.3207867058   -0.0000246847
     21  H        -2.6204412212   -1.6685703628    0.0000135313
     22  H        -1.6804138690    1.3059962687   -0.0001095639
     23  H        -0.2054968564   -1.4157572054    0.0000269158
     24  H         3.6413002875    1.2912500051   -0.0001035147
     25  C        -4.3734202347    1.3852150858   -0.0001203220
     26  H        -5.4531504482    1.5887945109   -0.0001409642
     27  H        -3.9453049850    1.8823567871   -0.8891860164
     28  H        -3.9453250630    1.8824223004    0.8889182742
     29  C         0.9135213451    1.9361624739   -0.0001224225
     30  H         1.9141788999    2.3887762297   -0.0001241324
     31  H         0.3756869639    2.3149666024    0.8879708445
     32  H         0.3757188082    2.3148873758   -0.8882690085
   Point Group: c1    Number of degrees of freedom:    90


   Energy is   -543.851191482

 Hessian Updated using BFGS Update

 67 Hessian modes will be used to form the next step
  Hessian Eigenvalues:
     0.006925    0.006941    0.009676    0.010894    0.010973    0.012102
     0.013432    0.013754    0.019646    0.019666    0.019762    0.019838
     0.020184    0.020357    0.028092    0.028417    0.030198    0.030384
     0.031005    0.068193    0.069358    0.073800    0.074228    0.128753
     0.149446    0.160565    0.162377    0.164186    0.201145    0.213824
     0.220530    0.222452    0.226684    0.245299    0.249648    0.252552
     0.274843    0.302478    0.308099    0.317500    0.325413    0.325670
     0.326369    0.330464    0.333758    0.334675    0.338912    0.344877
     0.349306    0.350110    0.350443    0.350592    0.351370    0.351787
     0.352700    0.353662    0.354306    0.356037    0.356919    0.359338
     0.393340    0.530729    0.550010    0.558377    0.571754    0.578598
     0.606133

 Minimum Search - Taking Simple RFO Step
 Searching for Lamda that Minimizes Along All modes
 Value Taken    Lamda =   0.00000000
 Step Taken.  Stepsize is  0.001980

                             Maximum     Tolerance    Cnvgd?
         Gradient           0.000223      0.000300     YES
         Displacement       0.000901      0.001200     YES
         Energy change     -0.000006      0.000001      NO

 Final energy is   -543.851191482494     


 ******************************
 **  OPTIMIZATION CONVERGED  **
 ******************************

                       Coordinates (Angstroms)
     ATOM                X               Y               Z
      1  C         7.1037554336   -0.8524348343    0.0000263312
      2  C         5.9815321339   -0.0796787758   -0.0000206499
      3  C         4.6232393290   -0.5897971257    0.0000071579
      4  C         3.4959520309    0.2047616282   -0.0000404323
      5  C         2.1514719234   -0.3071929919   -0.0000155191
      6  C         0.9599097429    0.4113980319   -0.0000525701
      7  H         8.1046860388   -0.4156480105    0.0000013759
      8  H         7.0480574264   -1.9456108674    0.0000907846
      9  H         6.0895361929    1.0133943526   -0.0000852667
     10  H         4.5021351463   -1.6813748085    0.0000706669
     11  H         2.0636987105   -1.4020439289    0.0000390068
     12  C        -6.5006498566   -0.8561472854   -0.0000400032
     13  C        -5.1596307771   -1.0908912327   -0.0000308023
     14  H        -7.2148534835   -1.6825610596   -0.0000142413
     15  H        -6.9323454318    0.1474951021   -0.0000722455
     16  C        -4.0696977634   -0.1113212569   -0.0000619721
     17  C        -2.7646665668   -0.5798855164   -0.0000335925
     18  H        -4.8268177539   -2.1377994894    0.0000045517
     19  C        -1.5657105814    0.2178752732   -0.0000584494
     20  C        -0.2925372411   -0.3207867058   -0.0000246847
     21  H        -2.6204412212   -1.6685703628    0.0000135313
     22  H        -1.6804138690    1.3059962687   -0.0001095639
     23  H        -0.2054968564   -1.4157572054    0.0000269158
     24  H         3.6413002875    1.2912500051   -0.0001035147
     25  C        -4.3734202347    1.3852150858   -0.0001203220
     26  H        -5.4531504482    1.5887945109   -0.0001409642
     27  H        -3.9453049850    1.8823567871   -0.8891860164
     28  H        -3.9453250630    1.8824223004    0.8889182742
     29  C         0.9135213451    1.9361624739   -0.0001224225
     30  H         1.9141788999    2.3887762297   -0.0001241324
     31  H         0.3756869639    2.3149666024    0.8879708445
     32  H         0.3757188082    2.3148873758   -0.8882690085

Z-matrix Print:
$molecule
0 1
C 
C  1 1.391472
H  2 1.098364 1 116.509216
C  2 1.438654 1 128.061274 3 180.000000 0
H  4 1.096167 2 118.465637 1 -0.000000 0
C  4 1.379167 2 123.976272 1 180.000000 0
H  6 1.098275 4 118.847023 2 -0.000000 0
C  1 1.450765 2 118.596536 3 -0.000000 0
H  8 1.098425 1 115.765754 2 0.000000 0
C  8 1.382435 1 126.756752 2 -180.000000 0
H  10 1.094150 8 118.950107 1 -0.000000 0
C  10 1.440110 8 123.428470 1 180.000000 0
H  12 1.098197 10 116.092570 8 -0.000000 0
C  12 1.386600 10 126.610622 8 180.000000 0
C  6 1.450924 4 124.238142 2 180.000000 0
H  15 1.098396 6 116.227041 4 -0.000000 0
C  15 1.362548 6 124.864849 4 180.000000 0
H  17 1.092083 15 121.873412 6 180.000000 0
H  17 1.094594 15 121.634325 6 -0.000000 0
C  14 1.465439 12 118.302198 10 180.000000 0
H  20 1.098536 14 114.311902 12 -0.000000 0
C  20 1.361410 14 128.123629 12 180.000000 0
H  22 1.092267 20 120.905279 14 180.000000 0
H  22 1.092547 20 123.202902 14 -0.000000 0
C  1 1.525470 2 122.835354 3 180.000000 0
H  25 1.098260 1 112.595426 2 -0.000873 0
H  25 1.105200 1 110.937541 2 -120.639958 0
H  25 1.105201 1 110.937603 2 120.638313 0
C  14 1.527046 12 121.222773 10 -0.000000 0
H  29 1.098755 14 112.149949 12 180.000000 0
H  29 1.104930 14 111.340415 12 -59.752194 0
H  29 1.104930 14 111.340399 12 59.751861 0
$end

 
 --------------------------------------------------------------
 
                    Orbital Energies (a.u.)
 --------------------------------------------------------------
 
 Alpha MOs
 -- Occupied --
 -9.936  -9.932  -9.926  -9.925  -9.924  -9.923  -9.922  -9.922
 -9.921  -9.918  -9.917  -9.915  -9.915  -9.911  -0.746  -0.734
 -0.716  -0.685  -0.661  -0.643  -0.615  -0.606  -0.564  -0.525
 -0.492  -0.485  -0.470  -0.455  -0.432  -0.413  -0.409  -0.388
 -0.378  -0.366  -0.363  -0.361  -0.345  -0.335  -0.333  -0.325
 -0.313  -0.310  -0.300  -0.293  -0.290  -0.287  -0.277  -0.253
 -0.231  -0.190  -0.150
 -- Virtual --
 -0.086  -0.038   0.009   0.042   0.064   0.068   0.077   0.081
  0.084   0.088   0.102   0.103   0.116   0.120   0.129   0.134
  0.147   0.161   0.164   0.164   0.174   0.180   0.198   0.203
  0.210   0.214   0.241   0.283   0.307   0.325   0.344   0.363
  0.365   0.373   0.383   0.401   0.418   0.471   0.475   0.483
  0.487   0.504   0.517   0.523   0.523   0.535   0.549   0.550
  0.558   0.580   0.586   0.590   0.595   0.601   0.614   0.619
  0.626   0.631   0.654   0.657   0.661   0.662   0.676   0.686
  0.708   0.710   0.720   0.733   0.751   0.779   0.790   0.810
  0.812   0.824   0.834   0.855   0.860   0.877   0.879   0.883
  0.893   0.906   0.911   0.919   0.937   0.951   0.959   0.968
  0.988   1.014   1.032   1.043   1.061   1.076   1.092   1.103
  1.122   1.147   1.163   1.189   1.259   1.261   1.278   1.296
  1.329   1.353   1.383   1.465   1.496   1.547   1.575
 --------------------------------------------------------------
 
          Ground-State Mulliken Net Atomic Charges

     Atom                 Charge (a.u.)
  ----------------------------------------
      1 C                    -0.282336
      2 C                    -0.039854
      3 C                    -0.088721
      4 C                    -0.084810
      5 C                    -0.159623
      6 C                     0.155038
      7 H                     0.108571
      8 H                     0.108505
      9 H                     0.093696
     10 H                     0.092622
     11 H                     0.090486
     12 C                    -0.287953
     13 C                    -0.074911
     14 H                     0.107131
     15 H                     0.109235
     16 C                     0.146227
     17 C                    -0.153486
     18 H                     0.091850
     19 C                    -0.076845
     20 C                    -0.141819
     21 H                     0.088511
     22 H                     0.094214
     23 H                     0.089531
     24 H                     0.095900
     25 C                    -0.452050
     26 H                     0.129392
     27 H                     0.140639
     28 H                     0.140640
     29 C                    -0.451224
     30 H                     0.130113
     31 H                     0.140667
     32 H                     0.140667
  ----------------------------------------
  Sum of atomic charges =    -0.000000

 -----------------------------------------------------------------
                    Cartesian Multipole Moments
 -----------------------------------------------------------------
    Charge (ESU x 10^10)
                -0.0000
    Dipole Moment (Debye)
         X      -0.0070      Y       0.7540      Z      -0.0000
       Tot       0.7540
    Quadrupole Moments (Debye-Ang)
        XX     -83.3919     XY      -0.9456     YY     -78.7212
        XZ       0.0000     YZ      -0.0007     ZZ     -92.4274
    Octopole Moments (Debye-Ang^2)
       XXX       6.1981    XXY       9.7299    XYY       1.3531
       YYY      -3.8162    XXZ       0.0032    XYZ      -0.0008
       YYZ       0.0041    XZZ      -4.0885    YZZ       4.9398
       ZZZ       0.0115
    Hexadecapole Moments (Debye-Ang^3)
      XXXX   -8831.6308   XXXY      21.2491   XXYY   -1532.4731
      XYYY      29.7511   YYYY    -595.1234   XXXZ      -0.0216
      XXYZ      -0.0100   XYYZ      -0.0072   YYYZ       0.0100
      XXZZ   -1724.9113   XYZZ       2.5731   YYZZ    -121.9005
      XZZZ      -0.0242   YZZZ       0.0103   ZZZZ    -109.2364
 -----------------------------------------------------------------
Archival summary:
1\1\cub-0-13.local\OPT\ProcedureUnspecified\6-31G\1418\c295_lal\TueOct3021:23:002018TueOct3021:23:002018\0\\#,OPT,ProcedureUnspecified,6-31G,\\0,1\C\C,1,1.39147\H,2,1.09836,1,116.509\C,2,1.43865,1,128.061,3,180,0\H,4,1.09617,2,118.466,1,-0,0\C,4,1.37917,2,123.976,1,180,0\H,6,1.09828,4,118.847,2,-0,0\C,1,1.45076,2,118.597,3,-0,0\H,8,1.09842,1,115.766,2,0,0\C,8,1.38244,1,126.757,2,-180,0\H,10,1.09415,8,118.95,1,-0,0\C,10,1.44011,8,123.428,1,180,0\H,12,1.0982,10,116.093,8,-0,0\C,12,1.3866,10,126.611,8,180,0\C,6,1.45092,4,124.238,2,180,0\H,15,1.0984,6,116.227,4,-0,0\C,15,1.36255,6,124.865,4,180,0\H,17,1.09208,15,121.873,6,180,0\H,17,1.09459,15,121.634,6,-0,0\C,14,1.46544,12,118.302,10,180,0\H,20,1.09854,14,114.312,12,-0,0\C,20,1.36141,14,128.124,12,180,0\H,22,1.09227,20,120.905,14,180,0\H,22,1.09255,20,123.203,14,-0,0\C,1,1.52547,2,122.835,3,180,0\H,25,1.09826,1,112.595,2,-0.000872615,0\H,25,1.1052,1,110.938,2,-120.64,0\H,25,1.1052,1,110.938,2,120.638,0\C,14,1.52705,12,121.223,10,-0,0\H,29,1.09875,14,112.15,12,180,0\H,29,1.10493,14,111.34,12,-59.7522,0\H,29,1.10493,14,111.34,12,59.7519,0\\\@

 Total job time:  69.36s(wall), 276.39s(cpu) 
 Tue Oct 30 21:23:00 2018

        *************************************************************
        *                                                           *
        *  Thank you very much for using Q-Chem.  Have a nice day.  *
        *                                                           *
        *************************************************************


