
Running Job 1 of 1 car_3_opt_631g_gga.in
qchem car_3_opt_631g_gga.in_8865.0 /scr/c295_lal/137030/qchem8865/ 1
/usr/software/qchem_511/exe/qcprog.exe_s car_3_opt_631g_gga.in_8865.0 /scr/c295_lal/137030/qchem8865/
Check license passed

                  Welcome to Q-Chem
     A Quantum Leap Into The Future Of Chemistry


 Q-Chem 5.1, Q-Chem, Inc., Pleasanton, CA (2018)

 Yihan Shao,  Zhengting Gan,  E. Epifanovsky,  A. T. B. Gilbert,  M. Wormit,  
 J. Kussmann,  A. W. Lange,  A. Behn,  Jia Deng,  Xintian Feng,  D. Ghosh,  
 M. Goldey,  P. R. Horn,  L. D. Jacobson,  I. Kaliman,  T. Kus,  A. Landau,  
 Jie Liu,  E. I. Proynov,  R. M. Richard,  R. P. Steele,  E. J. Sundstrom,  
 H. L. Woodcock III,  P. M. Zimmerman,  D. Zuev,  B. Albrecht,  E. Alguire,  
 S. A. Baeppler,  D. Barton,  Z. Benda,  Y. A. Bernard,  E. J. Berquist,  
 K. B. Bravaya,  H. Burton,  D. Casanova,  Chun-Min Chang,  Yunqing Chen,  
 A. Chien,  K. D. Closser,  M. P. Coons,  S. Coriani,  S. Dasgupta,  
 A. L. Dempwolff,  M. Diedenhofen,  Hainam Do,  R. G. Edgar,  Po-Tung Fang,  
 S. Faraji,  S. Fatehi,  Qingguo Feng,  K. D. Fenk,  J. Fosso-Tande,  
 Qinghui Ge,  A. Ghysels,  G. Gidofalvi,  J. Gomes,  J. Gonthier,  A. Gunina,  
 D. Hait,  M. W. D. Hanson-Heine,  P. H. P. Harbach,  A. W. Hauser,  
 J. E. Herr,  E. G. Hohenstein,  Z. C. Holden,  Kerwin Hui,  B. C. Huynh,  
 T.-C. Jagau,  Hyunjun Ji,  B. Kaduk,  K. Khistyaev,  Jaehoon Kim,  
 P. Klunzinger,  K. Koh,  D. Kosenkov,  L. Koulias,  T. Kowalczyk,  
 C. M. Krauter,  A. Kunitsa,  Ka Un Lao,  A. Laurent,  K. V. Lawler,  
 Joonho Lee,  D. Lefrancois,  S. Lehtola,  D. S. Levine,  Yi-Pei Li,  
 You-Sheng Lin,  Fenglai Liu,  E. Livshits,  A. Luenser,  P. Manohar,  
 E. Mansoor,  S. F. Manzer,  Shan-Ping Mao,  Yuezhi Mao,  N. Mardirossian,  
 A. V. Marenich,  T. Markovich,  L. A. Martinez-Martinez,  S. A. Maurer,  
 N. J. Mayhall,  S. C. McKenzie,  J.-M. Mewes,  A. F. Morrison,  
 J. W. Mullinax,  K. Nanda,  T. S. Nguyen-Beck,  R. Olivares-Amaya,  
 J. A. Parkhill,  T. M. Perrine,  F. Plasser,  P. Pokhilko,  S. Prager,  
 A. Prociuk,  E. Ramos,  D. R. Rehn,  F. Rob,  M. Schneider,  N. Sergueev,  
 S. M. Sharada,  S. Sharma,  D. W. Small,  T. Stauch,  T. Stein,  
 Yu-Chuan Su,  A. J. W. Thom,  A. Tkatchenko,  T. Tsuchimochi,  N. M. Tubman,  
 L. Vogt,  M. L. Vidal,  O. Vydrov,  M. A. Watson,  J. Wenzel,  
 M. de Wergifosse,  T. A. Wesolowski,  A. White,  J. Witte,  A. Yamada,  
 Jun Yang,  K. Yao,  S. Yeganeh,  S. R. Yost,  Zhi-Qiang You,  A. Zech,  
 Igor Ying Zhang,  Xing Zhang,  Yan Zhao,  Ying Zhu,  B. R. Brooks,  
 G. K. L. Chan,  C. J. Cramer,  M. S. Gordon,  W. J. Hehre,  A. Klamt,  
 M. W. Schmidt,  C. D. Sherrill,  D. G. Truhlar,  A. Aspuru-Guzik,  R. Baer,  
 A. T. Bell,  N. A. Besley,  Jeng-Da Chai,  A. E. DePrince, III,  
 R. A. DiStasio Jr.,  A. Dreuw,  B. D. Dunietz,  T. R. Furlani,  
 Chao-Ping Hsu,  Yousung Jung,  Jing Kong,  D. S. Lambrecht,  WanZhen Liang,  
 C. Ochsenfeld,  V. A. Rassolov,  L. V. Slipchenko,  J. E. Subotnik,  
 T. Van Voorhis,  J. M. Herbert,  A. I. Krylov,  P. M. W. Gill,  M. Head-Gordon

 Contributors to earlier versions of Q-Chem not listed above: 
 R. D. Adamson,  B. Austin,  J. Baker,  G. J. O. Beran,  K. Brandhorst,  
 S. T. Brown,  E. F. C. Byrd,  A. K. Chakraborty,  C.-L. Cheng,  
 Siu Hung Chien,  D. M. Chipman,  D. L. Crittenden,  H. Dachsel,  
 R. J. Doerksen,  A. D. Dutoi,  L. Fusti-Molnar,  W. A. Goddard III,  
 A. Golubeva-Zadorozhnaya,  S. R. Gwaltney,  G. Hawkins,  A. Heyden,  
 S. Hirata,  G. Kedziora,  F. J. Keil,  C. Kelley,  Jihan Kim,  R. A. King,  
 R. Z. Khaliullin,  P. P. Korambath,  W. Kurlancheek,  A. M. Lee,  M. S. Lee,  
 S. V. Levchenko,  Ching Yeh Lin,  D. Liotard,  R. C. Lochan,  I. Lotan,  
 P. E. Maslen,  N. Nair,  D. P. O'Neill,  D. Neuhauser,  E. Neuscamman,  
 C. M. Oana,  R. Olson,  B. Peters,  R. Peverati,  P. A. Pieniazek,  
 Y. M. Rhee,  J. Ritchie,  M. A. Rohrdanz,  E. Rosta,  N. J. Russ,  
 H. F. Schaefer III,  N. E. Schultz,  N. Shenvi,  A. C. Simmonett,  A. Sodt,  
 D. Stuck,  K. S. Thanthiriwatte,  V. Vanovschi,  Tao Wang,  A. Warshel,  
 C. F. Williams,  Q. Wu,  X. Xu,  W. Zhang

 Please cite Q-Chem as follows:
 Y. Shao et al., Mol. Phys. 113, 184-215 (2015)
 DOI: 10.1080/00268976.2014.952696

 Q-Chem 5.1.1 for Intel X86 EM64T Linux

 Parts of Q-Chem use Armadillo 8.300.2 (Tropical Shenanigans).
 http://arma.sourceforge.net/

 Q-Chem begins on Wed Oct 31 00:20:51 2018  

Host: cub-0-23.local
0

     Scratch files written to /scr/c295_lal/137030/qchem8865//
 Aug318 |scratch|qcdevops|jenkins|workspace|build_RNUM -1
Processing $rem in /usr/software/qchem_511/config/preferences.
 MEM_TOTAL  2000 
Input Ideriv = 2
Curr. Ideriv = -1
Max.  Ideriv = 2

Checking the input file for inconsistencies... 	...done.

--------------------------------------------------------------
User input:
--------------------------------------------------------------
$molecule
0 1
C         -1.05379        2.80345       -0.21475
C         -1.38361        1.85548        0.68235
C         -0.32829        1.00121        1.29117
C         -0.51849        0.01545        2.20534
C          0.69592       -0.71908        2.68480
C          0.65900       -1.73367        3.57381
H         -2.41981        1.72779        0.95007
H          0.68989        1.19848        0.96157
H          1.64507       -0.43389        2.24814
C          1.84948       -2.53022        4.04674
H         -0.31151       -2.06834        3.91186
C          3.10857       -1.99622        4.25130
C          4.27903       -2.84582        4.72281
C          3.86646       -4.16332        5.36940
H          4.88076       -2.30386        5.48490
H          4.93566       -3.02273        3.84325
C          2.88277       -4.85830        4.45541
H          3.40616       -3.98482        6.36248
H          4.77231       -4.78810        5.52565
C          1.57096       -4.03505        4.30997
H          2.65513       -5.88192        4.82677
H          3.38469       -4.97093        3.46675
C          3.47121       -0.52896        4.12066
H          2.62813        0.16593        3.99319
H          4.21271       -0.39212        3.30592
H          3.93133       -0.18918        5.07249
C          0.70570       -4.17366        5.58654
H          1.20179       -3.71985        6.46804
H          0.50771       -5.24413        5.81007
H         -0.27852       -3.67590        5.47215
C          0.80141       -4.66846        3.12424
H          1.38297       -4.56768        2.18229
H         -0.18857       -4.19235        2.96743
H          0.61742       -5.74958        3.30782
C         -2.04377        3.70924       -0.87806
C         -1.55992        4.61925       -1.76110
C         -2.35899        5.61217       -2.52862
C         -1.75686        6.46368       -3.37463
H         -3.43357        5.67279       -2.42497
H         -0.48578        4.63731       -1.93490
H         -0.00354        2.91998       -0.47411
C         -2.55572        7.45746       -4.14127
C         -2.07140        8.36948       -5.02198
C         -3.06089        9.27729       -5.68325
C         -2.73006       10.22938       -6.57555
H         -1.69356       10.35929       -6.84151
H         -4.11146        9.15955       -5.42575
C         -3.78433       11.08653       -7.18171
C         -3.59052       12.07791       -8.08778
H         -4.80423       10.88818       -6.85787
C         -4.79945       12.81595       -8.56573
C         -4.76199       13.81566       -9.45619
H         -3.83638       14.16469       -9.89949
H         -5.77522       12.53614       -8.17638
H         -5.68435       14.30377       -9.75441
H         -0.68225        6.40325       -3.47801
H         -3.62993        7.43910       -3.96794
C         -1.88151       -0.36418        2.75392
H         -2.72767        0.22235        2.36196
H         -1.88225       -0.23219        3.85626
H         -2.09149       -1.42754        2.51377
C         -3.51632        3.57262       -0.53951
H         -4.18618        4.27174       -1.06539
H         -3.66048        3.74508        0.54768
H         -3.85763        2.54724       -0.79371
C         -0.59862        8.50712       -5.35916
H          0.07092        7.80641       -4.83500
H         -0.25741        9.53173       -5.10174
H         -0.45383        8.33786       -6.44677
C         -2.22831       12.46716       -8.63016
H         -1.38068       11.88354       -8.23640
H         -2.02765       13.53163       -8.38710
H         -2.22300       12.33992       -9.73299
$end

$rem
BASIS = 6-31G
METHOD  = BLYP
JOBTYPE = OPT
$end
--------------------------------------------------------------
 ----------------------------------------------------------------
             Standard Nuclear Orientation (Angstroms)
    I     Atom           X                Y                Z
 ----------------------------------------------------------------
    1      C      -0.5375160946    -0.5270462243    -0.1487865043
    2      C      -1.6981547658    -1.1981643663    -0.2701746326
    3      C      -2.9949024870    -0.4745539121    -0.1754508975
    4      C      -4.2324806898    -1.0229434611    -0.2816332922
    5      C      -5.4051837157    -0.0994156065    -0.1548587863
    6      C      -6.6911301574    -0.5037122199    -0.2179518285
    7      H      -1.6708788289    -2.2627057650    -0.4365982131
    8      H      -2.9277810812     0.5981007381    -0.0047205731
    9      H      -5.1885211445     0.9432306621     0.0422125283
   10      C      -7.8995017673     0.3831028031    -0.0482624496
   11      H      -6.8788906874    -1.5642892455    -0.3079175313
   12      C      -7.9721854143     1.6894268660    -0.4960826723
   13      C      -9.2137206563     2.5446664265    -0.2929226650
   14      C     -10.4748055558     1.7429590799     0.0087876094
   15      H      -9.4382983716     3.1404964044    -1.2045872359
   16      H      -8.9919173659     3.2611789555     0.5277471801
   17      C     -10.1669152989     0.7659858488     1.1208792567
   18      H     -10.8183896825     1.1989929326    -0.8945379160
   19      H     -11.2845084181     2.4428429451     0.3085745062
   20      C      -9.1041979778    -0.2785527200     0.6744378764
   21      H     -11.0926857941     0.2513520162     1.4609191546
   22      H      -9.7883782805     1.3648770117     1.9811681034
   23      C      -6.8991678535     2.4037963614    -1.2959176710
   24      H      -6.0719678021     1.7766293017    -1.6596567996
   25      H      -6.5062749487     3.2666581702    -0.7184634585
   26      H      -7.3507113581     2.7882527603    -2.2347696041
   27      C      -9.7448957868    -1.3276789024    -0.2670286050
   28      H     -10.0786367997    -0.8715002615    -1.2207628647
   29      H     -10.6239390340    -1.8034788435     0.2187379105
   30      H      -9.0337179816    -2.1389665885    -0.5231096814
   31      C      -8.6442695750    -0.9958387661     1.9680134080
   32      H      -8.1569783430    -0.2767296379     2.6616038934
   33      H      -7.9218737027    -1.8116320773     1.7583565797
   34      H      -9.5108336677    -1.4549161975     2.4921211985
   35      C       0.8127494142    -1.1677974361    -0.2307439379
   36      C       1.8941861079    -0.3597101182    -0.0911795143
   37      C       3.3201643083    -0.7813308589    -0.1392634473
   38      C       4.3029742321     0.1211911443     0.0120687189
   39      H       3.5979916548    -1.8144263867    -0.2963171939
   40      H       1.7177248488     0.7017397474     0.0715931801
   41      H      -0.5820518868     0.5471425268     0.0185664259
   42      C       5.7290010037    -0.3001519940    -0.0372312231
   43      C       6.8103909588     0.5085245329     0.0992769694
   44      C       8.1607878355    -0.1315738540     0.0144842824
   45      C       9.3213032533     0.5407933170     0.1295907520
   46      H       9.2945300773     1.6058928858     0.2932663009
   47      H       8.2056397786    -1.2060866179    -0.1506729329
   48      C      10.6182925628    -0.1815127582     0.0310312993
   49      C      11.8541455468     0.3705002147     0.1275121003
   50      H      10.5543383183    -1.2552404243    -0.1345882398
   51      C      13.0270395195    -0.5471514176    -0.0024348103
   52      C      14.3026294009    -0.1456451172     0.0710872449
   53      H      14.5773755951     0.8904463695     0.2327030328
   54      H      12.8504470285    -1.6072429417    -0.1668586651
   55      H      15.1012632398    -0.8731364957    -0.0331950437
   56      H       4.0251162160     1.1543212953     0.1687941964
   57      H       5.9055434498    -1.3616719392    -0.1994522858
   58      C      -4.4736512966    -2.5017767405    -0.5219899937
   59      H      -3.5656948323    -3.1191933347    -0.6117041849
   60      H      -5.0446870264    -2.6310555536    -1.4652718004
   61      H      -5.0624421004    -2.9202037454     0.3210653684
   62      C       0.9103842744    -2.6639434542    -0.4624747216
   63      H       1.9350926466    -3.0659381301    -0.5115053339
   64      H       0.4181643414    -2.9192461848    -1.4242682060
   65      H       0.3945595893    -3.1975272025     0.3631932372
   66      C       6.7126207587     2.0049341844     0.3293099956
   67      H       5.6878603152     2.4064946798     0.3806638978
   68      H       7.2259431970     2.5377730013    -0.4983963788
   69      H       7.2073071897     2.2616599090     1.2894588597
   70      C      12.0989418453     1.8499318332     0.3569997240
   71      H      11.1916561796     2.4691880769     0.4435461528
   72      H      12.6893560991     2.2592453177    -0.4893527206
   73      H      12.6725577959     1.9847957577     1.2978656474
 ----------------------------------------------------------------
 Molecular Point Group                 C1    NOp =  1
 Largest Abelian Subgroup              C1    NOp =  1
 Nuclear Repulsion Energy =  2453.8391395837 hartrees
 There are      114 alpha and      114 beta electrons
 Requested basis set is 6-31G
 There are 177 shells and 363 basis functions

 Total QAlloc Memory Limit   2000 MB
 Mega-Array Size       188 MB
 MEM_STATIC part       192 MB
 A cutoff of  1.0D-11 yielded   5737 shell pairs
 There are     26566 function pairs
 
 -------------------------------------------------------
 OpenMP Integral Computing Module                       
 Release: version 1.0, May 2013, Q-Chem Inc. Pittsburgh 
 -------------------------------------------------------
 Integral Job Info:
 Integral job number is                      11
 Integral operator is                         1
 short-range coefficients                     0
 long-range coefficients              100000000
 Omega coefficients                           0
 if combine SR and LR in K                    0
 Integral screening is                        0
 Integral computing path is                   2
 max size of driver memory is            800000
 size of driver memory is                 45569
 size of scratch memory is              2040132
 max col of scratch BK array                289
 max len of scratch array in speh3           22
 max len of scratch index in speh4            8
 max int batch size is                      520
 min int batch size is                       52
 fixed nKL is                                52
 max L of basis functions is                  1
 order of int derivative is                   0
 number of shells is                        177
 number of basis is                         363
 number of cartesian basis is               363
 number of contracted shell pairs          5737
 number of primitive shell pairs          21415
 maxK2 (contraction) of shell pair           36
 max number of K2 of shell pair               1
 max number of CS2 of shell pair           1016
 max number of PS2 of shell pair           3990
 mem total for path MDJ                  598214
 -------------------------------------------------------
 Smallest overlap matrix eigenvalue = 1.63E-03

 Scale SEOQF with 1.000000e-02/1.000000e-01/1.000000e-01

 Standard Electronic Orientation quadrupole field applied
 Nucleus-field energy     =     0.0000000752 hartrees
 Guess from superposition of atomic densities
 Warning:  Energy on first SCF cycle will be non-variational
 SAD guess density has 228.000001 electrons

 -----------------------------------------------------------------------
  General SCF calculation program by
  Eric Jon Sundstrom, Paul Horn, Yuezhi Mao, Dmitri Zuev, Alec White,
  David Stuck, Shaama M.S., Shane Yost, Joonho Lee, David Small,
  Daniel Levine, Susi Lehtola, Hugh Burton, Evgeny Epifanovsky
 -----------------------------------------------------------------------
 Exchange:  B88      Correlation:  LYP
 Using SG-1 standard quadrature grid
 using 4 threads for integral computing
 -------------------------------------------------------
 OpenMP Integral computing Module                
 Release: version 1.0, May 2013, Q-Chem Inc. Pittsburgh 
 -------------------------------------------------------
 -------------------------------------------------------
 OpenMP BLAS3 based DFT computing Module                
 Release: version 1.0, May 2013, Q-Chem Inc. Pittsburgh 
 -------------------------------------------------------
 A restricted SCF calculation will be
 performed using DIIS
 SCF converges when DIIS error is below 1.0e-08
 ---------------------------------------
  Cycle       Energy         DIIS error
 ---------------------------------------
    1   -1209.9605790828      4.80e-02  
    2   -1204.6754497715      6.70e-03  
    3   -1204.1806352425      8.32e-03  
    4   -1205.5276884404      9.93e-04  
    5   -1205.5390239294      6.41e-04  
    6   -1205.5458123545      2.75e-04  
    7   -1205.5472473113      5.65e-05  
    8   -1205.5472886865      3.26e-05  
    9   -1205.5473084956      9.55e-06  
   10   -1205.5473101652      2.90e-06  
   11   -1205.5473102917      1.67e-06  
   12   -1205.5473103493      3.56e-07  
   13   -1205.5473103511      2.26e-07  
   14   -1205.5473103521      3.99e-08  
   15   -1205.5473103521      1.45e-08  
   16   -1205.5473103521      8.65e-09  Convergence criterion met
 ---------------------------------------
 SCF time:   CPU 249.58s  wall 63.00s 
 SCF   energy in the final basis set =    -1205.5473103521
 Total energy in the final basis set =    -1205.5473103521
 
 --------------------------------------------------------------
 
                    Orbital Energies (a.u.)
 --------------------------------------------------------------
 
 Alpha MOs
 -- Occupied --
 -9.929  -9.928  -9.928  -9.926  -9.926  -9.920  -9.917  -9.917
 -9.917  -9.916  -9.916  -9.916  -9.916  -9.916  -9.915  -9.915
 -9.915  -9.915  -9.915  -9.914  -9.914  -9.913  -9.911  -9.911
 -9.911  -9.906  -9.905  -9.905  -9.903  -9.903  -9.900  -0.758
 -0.745  -0.741  -0.732  -0.726  -0.704  -0.698  -0.689  -0.677
 -0.664  -0.647  -0.642  -0.623  -0.612  -0.611  -0.603  -0.601
 -0.596  -0.591  -0.552  -0.536  -0.519  -0.503  -0.493  -0.485
 -0.481  -0.475  -0.469  -0.459  -0.449  -0.436  -0.428  -0.418
 -0.413  -0.408  -0.401  -0.391  -0.387  -0.382  -0.379  -0.368
 -0.367  -0.367  -0.366  -0.364  -0.364  -0.361  -0.359  -0.348
 -0.346  -0.339  -0.338  -0.335  -0.332  -0.331  -0.329  -0.320
 -0.320  -0.317  -0.315  -0.309  -0.307  -0.305  -0.300  -0.296
 -0.294  -0.290  -0.286  -0.283  -0.283  -0.277  -0.276  -0.271
 -0.269  -0.255  -0.250  -0.244  -0.239  -0.224  -0.202  -0.183
 -0.162  -0.143
 -- Virtual --
 -0.077  -0.052  -0.026   0.000   0.022   0.043   0.057   0.059
  0.063   0.068   0.069   0.074   0.078   0.080   0.082   0.086
  0.087   0.091   0.091   0.098   0.101   0.103   0.112   0.114
  0.116   0.123   0.126   0.127   0.131   0.132   0.137   0.140
  0.144   0.151   0.152   0.154   0.156   0.156   0.162   0.162
  0.167   0.169   0.171   0.174   0.181   0.184   0.186   0.190
  0.195   0.197   0.199   0.202   0.204   0.206   0.210   0.215
  0.221   0.225   0.228   0.232   0.244   0.246   0.254   0.256
  0.262   0.272   0.300   0.317   0.323   0.334   0.341   0.347
  0.366   0.372   0.379   0.382   0.394   0.402   0.409   0.419
  0.424   0.441   0.453   0.475   0.482   0.485   0.487   0.489
  0.491   0.493   0.501   0.503   0.509   0.517   0.522   0.526
  0.528   0.529   0.532   0.538   0.539   0.542   0.548   0.549
  0.555   0.559   0.562   0.565   0.572   0.576   0.581   0.589
  0.594   0.601   0.611   0.615   0.617   0.620   0.623   0.624
  0.628   0.638   0.639   0.639   0.645   0.654   0.655   0.663
  0.666   0.677   0.679   0.680   0.686   0.691   0.694   0.698
  0.702   0.704   0.706   0.712   0.714   0.726   0.728   0.729
  0.731   0.734   0.736   0.746   0.756   0.767   0.779   0.780
  0.790   0.796   0.801   0.801   0.807   0.813   0.815   0.830
  0.835   0.838   0.843   0.853   0.857   0.864   0.866   0.878
  0.878   0.880   0.882   0.885   0.887   0.889   0.889   0.894
  0.901   0.903   0.909   0.916   0.917   0.919   0.925   0.929
  0.932   0.934   0.937   0.944   0.946   0.948   0.952   0.959
  0.962   0.967   0.976   0.984   0.988   0.999   1.009   1.026
  1.031   1.049   1.054   1.060   1.070   1.078   1.087   1.092
  1.103   1.109   1.115   1.138   1.143   1.153   1.161   1.170
  1.181   1.183   1.191   1.209   1.214   1.222   1.246   1.255
  1.261   1.269   1.284   1.287   1.304   1.311   1.340   1.345
  1.355   1.390   1.415   1.426   1.449   1.469   1.500   1.510
  1.524   1.535   1.555   1.575   1.597   1.605   1.662   1.742
  1.837
 --------------------------------------------------------------
 
          Ground-State Mulliken Net Atomic Charges

     Atom                 Charge (a.u.)
  ----------------------------------------
      1 C                    -0.134714
      2 C                    -0.077060
      3 C                    -0.167350
      4 C                     0.149148
      5 C                    -0.115783
      6 C                    -0.150836
      7 H                     0.094914
      8 H                     0.084303
      9 H                     0.101860
     10 C                     0.103033
     11 H                     0.095848
     12 C                     0.083973
     13 C                    -0.274323
     14 C                    -0.215827
     15 H                     0.109969
     16 H                     0.119983
     17 C                    -0.202619
     18 H                     0.114045
     19 H                     0.098160
     20 C                    -0.002089
     21 H                     0.095513
     22 H                     0.103500
     23 C                    -0.439048
     24 H                     0.138948
     25 H                     0.125174
     26 H                     0.120641
     27 C                    -0.365915
     28 H                     0.120704
     29 H                     0.111939
     30 H                     0.116680
     31 C                    -0.353553
     32 H                     0.116315
     33 H                     0.107954
     34 H                     0.108086
     35 C                     0.153293
     36 C                    -0.171407
     37 C                    -0.079123
     38 C                    -0.079763
     39 H                     0.094743
     40 H                     0.086122
     41 H                     0.088253
     42 C                    -0.170536
     43 C                     0.152630
     44 C                    -0.133019
     45 C                    -0.078495
     46 H                     0.095783
     47 H                     0.089199
     48 C                    -0.160215
     49 C                     0.149322
     50 H                     0.086337
     51 C                    -0.069301
     52 C                    -0.280440
     53 H                     0.104780
     54 H                     0.092843
     55 H                     0.100234
     56 H                     0.094717
     57 H                     0.086483
     58 C                    -0.451331
     59 H                     0.129663
     60 H                     0.138644
     61 H                     0.137969
     62 C                    -0.451750
     63 H                     0.131432
     64 H                     0.138952
     65 H                     0.139088
     66 C                    -0.451674
     67 H                     0.131700
     68 H                     0.139035
     69 H                     0.139027
     70 C                    -0.452599
     71 H                     0.129849
     72 H                     0.139000
     73 H                     0.138981
  ----------------------------------------
  Sum of atomic charges =    -0.000000

 -----------------------------------------------------------------
                    Cartesian Multipole Moments
 -----------------------------------------------------------------
    Charge (ESU x 10^10)
                -0.0000
    Dipole Moment (Debye)
         X      -1.0078      Y       0.2546      Z      -0.0702
       Tot       1.0418
    Quadrupole Moments (Debye-Ang)
        XX    -188.3363     XY       3.2202     YY    -177.8208
        XZ       1.0427     YZ       3.0365     ZZ    -199.7706
    Octopole Moments (Debye-Ang^2)
       XXX    -140.7964    XXY      63.3511    XYY      31.5374
       YYY      -7.0359    XXZ       9.2071    XYZ      14.9028
       YYZ      -2.8223    XZZ     -34.8599    YZZ       4.6410
       ZZZ      -0.5231
    Hexadecapole Moments (Debye-Ang^3)
      XXXX  -72828.0845   XXXY     327.5021   XXYY  -11940.6389
      XYYY      -7.9649   YYYY   -2485.2206   XXXZ      44.7100
      XXYZ     157.5449   XYYZ      -0.4849   YYYZ      11.7269
      XXZZ  -12854.2884   XYZZ       8.4239   YYZZ    -530.2662
      XZZZ      20.6569   YZZZ       4.8639   ZZZZ    -691.0965
 -----------------------------------------------------------------
 Calculating analytic gradient of the SCF energy
 Gradient of SCF Energy
            1           2           3           4           5           6
    1  -0.0389618   0.0399240  -0.0340122   0.0225404  -0.0253493   0.0276292
    2   0.0117274  -0.0175850   0.0179366  -0.0104344   0.0203039  -0.0168112
    3   0.0014369  -0.0023006   0.0021067  -0.0005753   0.0007155  -0.0041338
            7           8           9          10          11          12
    1   0.0046901  -0.0028120  -0.0055595  -0.0104941   0.0047908  -0.0036537
    2   0.0091996  -0.0054004  -0.0047630  -0.0033617   0.0078386   0.0148356
    3   0.0014877  -0.0009178  -0.0014805   0.0025805   0.0027717   0.0043850
           13          14          15          16          17          18
    1   0.0000971   0.0129126  -0.0084949   0.0040763   0.0058342  -0.0003466
    2  -0.0067931  -0.0081409  -0.0026602  -0.0022312   0.0015081  -0.0034807
    3   0.0093755   0.0006495  -0.0025295   0.0012937  -0.0081926  -0.0008815
           19          20          21          22          23          24
    1  -0.0001979  -0.0006826  -0.0052317   0.0001313   0.0003270  -0.0005228
    2   0.0033761   0.0032721   0.0010385   0.0063458  -0.0008248   0.0006425
    3   0.0024149  -0.0073685  -0.0001641   0.0004444   0.0101220  -0.0076933
           25          26          27          28          29          30
    1  -0.0024681   0.0018953   0.0068063  -0.0004100  -0.0026560   0.0018472
    2   0.0010147  -0.0064925   0.0080274   0.0019318  -0.0013944  -0.0024717
    3   0.0045937  -0.0040534   0.0077740  -0.0030742   0.0016710  -0.0004550
           31          32          33          34          35          36
    1  -0.0072686   0.0018464   0.0018786  -0.0025252   0.0280997  -0.0402138
    2   0.0077902   0.0039948  -0.0034974  -0.0027902  -0.0072434   0.0098888
    3  -0.0095694   0.0023104  -0.0015432   0.0018592  -0.0008723   0.0010055
           37          38          39          40          41          42
    1   0.0490104  -0.0489467   0.0031338  -0.0015699  -0.0047369   0.0399209
    2  -0.0048796   0.0048064   0.0092003  -0.0057308  -0.0055089  -0.0099365
    3  -0.0001316   0.0001495   0.0015493  -0.0010446  -0.0009105  -0.0010817
           43          44          45          46          47          48
    1  -0.0275826   0.0381319  -0.0384383  -0.0046415   0.0047452   0.0322457
    2   0.0071363  -0.0118793   0.0173216  -0.0090678   0.0055443  -0.0178814
    3   0.0009283  -0.0015796   0.0023507  -0.0014185   0.0008610  -0.0024659
           49          50          51          52          53          54
    1  -0.0168347   0.0029457   0.0182232  -0.0149845  -0.0038324   0.0083986
    2   0.0103633   0.0053696  -0.0166757  -0.0003256  -0.0043001   0.0046394
    3   0.0013845   0.0008642  -0.0023262  -0.0002530  -0.0007159   0.0008626
           55          56          57          58          59          60
    1  -0.0065666  -0.0031456   0.0015625   0.0064144  -0.0008191   0.0013648
    2   0.0004456  -0.0091743   0.0057594   0.0022011  -0.0051849   0.0028218
    3  -0.0000106  -0.0015562   0.0010278   0.0009015  -0.0008417  -0.0044162
           61          62          63          64          65          66
    1   0.0012023   0.0059873   0.0006991   0.0006474   0.0005355  -0.0060354
    2   0.0013162   0.0040220  -0.0051869   0.0029757   0.0015663  -0.0039694
    3   0.0049223   0.0007354  -0.0008134  -0.0042522   0.0049175  -0.0007366
           67          68          69          70          71          72
    1  -0.0007079  -0.0005543  -0.0006451  -0.0066978   0.0006147  -0.0011907
    2   0.0052066  -0.0015901  -0.0029876  -0.0019282   0.0052122  -0.0013056
    3   0.0008181  -0.0048992   0.0042481  -0.0003674   0.0008038  -0.0049598
           73
    1  -0.0013186
    2  -0.0026917
    3   0.0042633
 Max gradient component =       4.901E-02
 RMS gradient           =       1.111E-02
 Gradient time:  CPU 33.63 s  wall 9.14 s
 Geometry Optimization Parameters
   NAtoms,    NIC,     NZ,  NCons,   NDum,   NFix, NCnnct, MaxDiis
       73     508       0       0       0       0       0       0


** GEOMETRY OPTIMIZATION IN DELOCALIZED INTERNAL COORDINATES **
   Searching for a Minimum

   Optimization Cycle:   1

                       Coordinates (Angstroms)
     ATOM                X               Y               Z
      1  C        -0.5375160946   -0.5270462243   -0.1487865043
      2  C        -1.6981547658   -1.1981643663   -0.2701746326
      3  C        -2.9949024870   -0.4745539121   -0.1754508975
      4  C        -4.2324806898   -1.0229434611   -0.2816332922
      5  C        -5.4051837157   -0.0994156065   -0.1548587863
      6  C        -6.6911301574   -0.5037122199   -0.2179518285
      7  H        -1.6708788289   -2.2627057650   -0.4365982131
      8  H        -2.9277810812    0.5981007381   -0.0047205731
      9  H        -5.1885211445    0.9432306621    0.0422125283
     10  C        -7.8995017673    0.3831028031   -0.0482624496
     11  H        -6.8788906874   -1.5642892455   -0.3079175313
     12  C        -7.9721854143    1.6894268660   -0.4960826723
     13  C        -9.2137206563    2.5446664265   -0.2929226650
     14  C       -10.4748055558    1.7429590799    0.0087876094
     15  H        -9.4382983716    3.1404964044   -1.2045872359
     16  H        -8.9919173659    3.2611789555    0.5277471801
     17  C       -10.1669152989    0.7659858488    1.1208792567
     18  H       -10.8183896825    1.1989929326   -0.8945379160
     19  H       -11.2845084181    2.4428429451    0.3085745062
     20  C        -9.1041979778   -0.2785527200    0.6744378764
     21  H       -11.0926857941    0.2513520162    1.4609191546
     22  H        -9.7883782805    1.3648770117    1.9811681034
     23  C        -6.8991678535    2.4037963614   -1.2959176710
     24  H        -6.0719678021    1.7766293017   -1.6596567996
     25  H        -6.5062749487    3.2666581702   -0.7184634585
     26  H        -7.3507113581    2.7882527603   -2.2347696041
     27  C        -9.7448957868   -1.3276789024   -0.2670286050
     28  H       -10.0786367997   -0.8715002615   -1.2207628647
     29  H       -10.6239390340   -1.8034788435    0.2187379105
     30  H        -9.0337179816   -2.1389665885   -0.5231096814
     31  C        -8.6442695750   -0.9958387661    1.9680134080
     32  H        -8.1569783430   -0.2767296379    2.6616038934
     33  H        -7.9218737027   -1.8116320773    1.7583565797
     34  H        -9.5108336677   -1.4549161975    2.4921211985
     35  C         0.8127494142   -1.1677974361   -0.2307439379
     36  C         1.8941861079   -0.3597101182   -0.0911795143
     37  C         3.3201643083   -0.7813308589   -0.1392634473
     38  C         4.3029742321    0.1211911443    0.0120687189
     39  H         3.5979916548   -1.8144263867   -0.2963171939
     40  H         1.7177248488    0.7017397474    0.0715931801
     41  H        -0.5820518868    0.5471425268    0.0185664259
     42  C         5.7290010037   -0.3001519940   -0.0372312231
     43  C         6.8103909588    0.5085245329    0.0992769694
     44  C         8.1607878355   -0.1315738540    0.0144842824
     45  C         9.3213032533    0.5407933170    0.1295907520
     46  H         9.2945300773    1.6058928858    0.2932663009
     47  H         8.2056397786   -1.2060866179   -0.1506729329
     48  C        10.6182925628   -0.1815127582    0.0310312993
     49  C        11.8541455468    0.3705002147    0.1275121003
     50  H        10.5543383183   -1.2552404243   -0.1345882398
     51  C        13.0270395195   -0.5471514176   -0.0024348103
     52  C        14.3026294009   -0.1456451172    0.0710872449
     53  H        14.5773755951    0.8904463695    0.2327030328
     54  H        12.8504470285   -1.6072429417   -0.1668586651
     55  H        15.1012632398   -0.8731364957   -0.0331950437
     56  H         4.0251162160    1.1543212953    0.1687941964
     57  H         5.9055434498   -1.3616719392   -0.1994522858
     58  C        -4.4736512966   -2.5017767405   -0.5219899937
     59  H        -3.5656948323   -3.1191933347   -0.6117041849
     60  H        -5.0446870264   -2.6310555536   -1.4652718004
     61  H        -5.0624421004   -2.9202037454    0.3210653684
     62  C         0.9103842744   -2.6639434542   -0.4624747216
     63  H         1.9350926466   -3.0659381301   -0.5115053339
     64  H         0.4181643414   -2.9192461848   -1.4242682060
     65  H         0.3945595893   -3.1975272025    0.3631932372
     66  C         6.7126207587    2.0049341844    0.3293099956
     67  H         5.6878603152    2.4064946798    0.3806638978
     68  H         7.2259431970    2.5377730013   -0.4983963788
     69  H         7.2073071897    2.2616599090    1.2894588597
     70  C        12.0989418453    1.8499318332    0.3569997240
     71  H        11.1916561796    2.4691880769    0.4435461528
     72  H        12.6893560991    2.2592453177   -0.4893527206
     73  H        12.6725577959    1.9847957577    1.2978656474
   Point Group: c1    Number of degrees of freedom:   213


   Energy is  -1205.547310352


 Attempting to Generate Delocalized Internal Coordinates

213 Hessian modes will be used to form the next step
  Hessian Eigenvalues:
     0.002698    0.002777    0.004041    0.006861    0.006911    0.006913
     0.006924    0.006929    0.008062    0.008450    0.009434    0.009598
     0.009599    0.009857    0.010038    0.010680    0.010766    0.010789
     0.010794    0.010795    0.013618    0.013716    0.013716    0.013824
     0.014091    0.018862    0.019516    0.019529    0.019579    0.019580
     0.019580    0.019580    0.019581    0.019966    0.019974    0.019996
     0.020054    0.020054    0.027990    0.028068    0.028069    0.028099
     0.029090    0.029525    0.029530    0.029961    0.030435    0.030435
     0.031018    0.032038    0.045080    0.046850    0.050017    0.052508
     0.053490    0.053723    0.053910    0.054563    0.054985    0.060440
     0.065820    0.068007    0.068074    0.068085    0.068142    0.068146
     0.074225    0.074293    0.074294    0.074380    0.075057    0.077342
     0.078061    0.081867    0.095356    0.097758    0.120483    0.133134
     0.158996    0.159610    0.159904    0.160000    0.160000    0.160000
     0.160000    0.160000    0.160000    0.160000    0.160000    0.160000
     0.160000    0.160000    0.160000    0.160000    0.160000    0.160000
     0.160000    0.160000    0.160000    0.160000    0.160000    0.160000
     0.160000    0.160000    0.160000    0.160000    0.160000    0.160000
     0.160000    0.160000    0.160000    0.160000    0.160000    0.160000
     0.160000    0.185409    0.220000    0.220000    0.220000    0.220000
     0.220000    0.220000    0.220000    0.220000    0.220000    0.220000
     0.220000    0.220029    0.220134    0.227341    0.249460    0.249993
     0.249999    0.249999    0.250000    0.250000    0.250000    0.250000
     0.250000    0.250000    0.264225    0.270754    0.277371    0.277883
     0.290594    0.296781    0.301426    0.306062    0.306436    0.306446
     0.306529    0.306568    0.315076    0.321306    0.323429    0.323874
     0.323972    0.324108    0.324320    0.324466    0.324588    0.325504
     0.325774    0.325802    0.325803    0.325805    0.325806    0.325808
     0.325810    0.325832    0.325839    0.325882    0.326368    0.327030
     0.327123    0.327126    0.327225    0.327440    0.329210    0.334752
     0.334805    0.334809    0.335001    0.336698    0.336869    0.336890
     0.336931    0.336939    0.350091    0.350145    0.350146    0.350181
     0.350379    0.350382    0.351377    0.353583    0.355134    0.356342
     0.358416    0.358424    0.358955    0.362450    0.362594    0.469576
     0.533958    0.535172    0.535178    0.535653    0.551323    0.558409
     0.558484    0.565615    0.573606

 Minimum Search - Taking Simple RFO Step
 Searching for Lamda that Minimizes Along All modes
 Value Taken    Lamda =  -0.04318206
 Calculated Step too Large.  Step scaled by  0.762213
 Step Taken.  Stepsize is  0.300000

                             Maximum     Tolerance    Cnvgd?
         Gradient           0.060342      0.000300      NO
         Displacement       0.148876      0.001200      NO
         Energy change     *********      0.000001      NO


 New Cartesian Coordinates Obtained by Inverse Iteration

 Displacement from previous Coordinates is:  1.462770
 ----------------------------------------------------------------
             Standard Nuclear Orientation (Angstroms)
    I     Atom           X                Y                Z
 ----------------------------------------------------------------
    1      C      -0.5307272916    -0.5013321013    -0.1212588428
    2      C      -1.7265695032    -1.1546540830    -0.2518615814
    3      C      -3.0090101012    -0.4486735826    -0.1608873936
    4      C      -4.2690407637    -0.9867780566    -0.2847374228
    5      C      -5.4311237508    -0.0763011178    -0.1540634963
    6      C      -6.7385898767    -0.4634749855    -0.2339713378
    7      H      -1.7287299759    -2.2267304313    -0.4311077831
    8      H      -2.9283065412     0.6263265481     0.0254551307
    9      H      -5.1888240708     0.9628240540     0.0638445605
   10      C      -7.9506467142     0.3959008144    -0.0683890151
   11      H      -6.9407173355    -1.5287886051    -0.3411328437
   12      C      -8.0607091844     1.6917660603    -0.5344078716
   13      C      -9.3218285527     2.5313594626    -0.3211165307
   14      C     -10.5705023413     1.6972381413     0.0205836988
   15      H      -9.5389341923     3.1251961780    -1.2327541287
   16      H      -9.1145860525     3.2632223116     0.4892274578
   17      C     -10.2157936755     0.7077090678     1.1372263330
   18      H     -10.9131039559     1.1501029422    -0.8778227513
   19      H     -11.3957460528     2.3706898519     0.3265893536
   20      C      -9.1256123537    -0.3128144686     0.6791546158
   21      H     -11.1093873352     0.1575758083     1.4936087899
   22      H      -9.8339062987     1.2944566036     1.9989682086
   23      C      -7.0169708485     2.4251939129    -1.3656493194
   24      H      -6.1858565563     1.7992756989    -1.7167235960
   25      H      -6.6140393066     3.2978871107    -0.8154114112
   26      H      -7.4943340942     2.8128850720    -2.2897750785
   27      C      -9.7600395540    -1.3889866832    -0.2567788711
   28      H     -10.1298699023    -0.9471450007    -1.1993716841
   29      H     -10.6098571357    -1.8905336951     0.2462175717
   30      H      -9.0319243769    -2.1750009785    -0.5289794938
   31      C      -8.6077698143    -1.0235580404     1.9697906074
   32      H      -8.1298814586    -0.2976028071     2.6542817228
   33      H      -7.8664701998    -1.8123491002     1.7468677189
   34      H      -9.4473146616    -1.5047736438     2.5085085575
   35      C       0.8029316825    -1.1327737355    -0.2023182372
   36      C       1.9115122460    -0.3288213019    -0.0597344408
   37      C       3.3181115061    -0.7362931550    -0.1108719908
   38      C       4.3451084999     0.1582676387     0.0377443844
   39      H       3.5648346427    -1.7846720143    -0.2754064028
   40      H       1.7493338910     0.7398047174     0.1085879082
   41      H      -0.5424421617     0.5779466407     0.0546113583
   42      C       5.7505282931    -0.2530235921    -0.0172163996
   43      C       6.8640164267     0.5460147885     0.1125760161
   44      C       8.1921807554    -0.0965583052     0.0245559213
   45      C       9.3957414211     0.5458730844     0.1308806009
   46      H       9.4135361290     1.6203792858     0.2938657705
   47      H       8.1923851202    -1.1778710378    -0.1389314240
   48      C      10.6680275844    -0.1789319008     0.0316301385
   49      C      11.9368147244     0.3412906169     0.1215593226
   50      H      10.5702323849    -1.2562182342    -0.1322084322
   51      C      13.0824057112    -0.5909868816    -0.0096619945
   52      C      14.3914714356    -0.2435993044     0.0560963706
   53      H      14.7185247079     0.7830499139     0.2158870800
   54      H      12.8387929224    -1.6443639521    -0.1723949827
   55      H      15.1703060810    -0.9993568672    -0.0512818761
   56      H       4.1000681837     1.2073226497     0.2002354389
   57      H       5.9077316862    -1.3230261571    -0.1816489924
   58      C      -4.5356320275    -2.4598326751    -0.5507146548
   59      H      -3.6212273850    -3.0631134500    -0.6410303254
   60      H      -5.1049568957    -2.5848105449    -1.4920844261
   61      H      -5.1348841078    -2.8984588507     0.2707117676
   62      C       0.8710666163    -2.6327613580    -0.4416929202
   63      H       1.8973719971    -3.0231195331    -0.4895765211
   64      H       0.3765596758    -2.8942577231    -1.3971824729
   65      H       0.3518664447    -3.1769840184     0.3709481195
   66      C       6.8077734990     2.0481694003     0.3408891858
   67      H       5.7844855693     2.4456633670     0.3938909184
   68      H       7.3241135468     2.5827920602    -0.4799289105
   69      H       7.3115337477     2.3136329499     1.2904623053
   70      C      12.2412552270     1.8126683052     0.3475792111
   71      H      11.3422749833     2.4391911830     0.4347414781
   72      H      12.8418404257     2.2148499179    -0.4912047168
   73      H      12.8264689905     1.9462423914     1.2780550254
 ----------------------------------------------------------------
 Molecular Point Group                 C1    NOp =  1
 Largest Abelian Subgroup              C1    NOp =  1
 Nuclear Repulsion Energy =  2443.0722759039 hartrees
 There are      114 alpha and      114 beta electrons
 Applying Cartesian multipole field
    Component          Value
    ---------          -----
     (2,0,0)        1.00000E-12
     (0,2,0)        2.00000E-11
     (0,0,2)       -3.00000E-11
 Nucleus-field energy     =     0.0000000753 hartrees
 Requested basis set is 6-31G
 There are 177 shells and 363 basis functions
 A cutoff of  1.0D-11 yielded   5721 shell pairs
 There are     26511 function pairs
 Smallest overlap matrix eigenvalue = 1.68E-03
 Guess MOs from SCF MO coefficient file

 -----------------------------------------------------------------------
  General SCF calculation program by
  Eric Jon Sundstrom, Paul Horn, Yuezhi Mao, Dmitri Zuev, Alec White,
  David Stuck, Shaama M.S., Shane Yost, Joonho Lee, David Small,
  Daniel Levine, Susi Lehtola, Hugh Burton, Evgeny Epifanovsky
 -----------------------------------------------------------------------
 Exchange:  B88      Correlation:  LYP
 Using SG-1 standard quadrature grid
 using 4 threads for integral computing
 -------------------------------------------------------
 OpenMP Integral computing Module                
 Release: version 1.0, May 2013, Q-Chem Inc. Pittsburgh 
 -------------------------------------------------------
 -------------------------------------------------------
 OpenMP BLAS3 based DFT computing Module                
 Release: version 1.0, May 2013, Q-Chem Inc. Pittsburgh 
 -------------------------------------------------------
 A restricted SCF calculation will be
 performed using DIIS
 SCF converges when DIIS error is below 1.0e-08
 ---------------------------------------
  Cycle       Energy         DIIS error
 ---------------------------------------
    1   -1205.5616763206      4.82e-04  
    2   -1205.5698736948      1.13e-04  
    3   -1205.5694025711      1.88e-04  
    4   -1205.5700209914      6.73e-05  
    5   -1205.5701196928      1.85e-05  
    6   -1205.5701249595      1.14e-05  
    7   -1205.5701277127      2.39e-06  
    8   -1205.5701278229      6.48e-07  
    9   -1205.5701278318      2.12e-07  
   10   -1205.5701278327      8.76e-08  
   11   -1205.5701278328      3.01e-08  
   12   -1205.5701278328      1.48e-08  
   13   -1205.5701278328      5.47e-09  Convergence criterion met
 ---------------------------------------
 SCF time:   CPU 207.37s  wall 52.00s 
 SCF   energy in the final basis set =    -1205.5701278328
 Total energy in the final basis set =    -1205.5701278328
 
 --------------------------------------------------------------
 
                    Orbital Energies (a.u.)
 --------------------------------------------------------------
 
 Alpha MOs
 -- Occupied --
 -9.931  -9.931  -9.931  -9.929  -9.929  -9.922  -9.921  -9.921
 -9.919  -9.919  -9.919  -9.918  -9.918  -9.918  -9.918  -9.918
 -9.917  -9.916  -9.916  -9.916  -9.914  -9.914  -9.914  -9.913
 -9.913  -9.909  -9.907  -9.907  -9.906  -9.904  -9.900  -0.755
 -0.744  -0.740  -0.731  -0.726  -0.702  -0.696  -0.688  -0.675
 -0.663  -0.643  -0.640  -0.625  -0.612  -0.610  -0.603  -0.602
 -0.595  -0.591  -0.558  -0.540  -0.522  -0.506  -0.495  -0.484
 -0.481  -0.473  -0.468  -0.459  -0.449  -0.436  -0.428  -0.418
 -0.413  -0.407  -0.401  -0.391  -0.387  -0.381  -0.379  -0.368
 -0.367  -0.365  -0.365  -0.363  -0.362  -0.362  -0.359  -0.347
 -0.346  -0.339  -0.339  -0.335  -0.334  -0.331  -0.330  -0.323
 -0.319  -0.318  -0.314  -0.310  -0.310  -0.305  -0.299  -0.297
 -0.294  -0.290  -0.286  -0.285  -0.284  -0.280  -0.277  -0.271
 -0.269  -0.257  -0.251  -0.245  -0.239  -0.224  -0.202  -0.183
 -0.162  -0.140
 -- Virtual --
 -0.085  -0.056  -0.029  -0.002   0.020   0.041   0.055   0.058
  0.063   0.067   0.068   0.074   0.078   0.080   0.082   0.086
  0.087   0.090   0.091   0.099   0.101   0.103   0.110   0.115
  0.117   0.122   0.127   0.129   0.132   0.133   0.138   0.140
  0.144   0.150   0.154   0.155   0.156   0.158   0.161   0.162
  0.166   0.169   0.172   0.174   0.182   0.182   0.186   0.193
  0.195   0.196   0.198   0.201   0.204   0.206   0.210   0.213
  0.218   0.222   0.225   0.227   0.241   0.245   0.251   0.252
  0.257   0.269   0.296   0.319   0.321   0.333   0.341   0.350
  0.365   0.371   0.374   0.380   0.394   0.400   0.403   0.415
  0.424   0.434   0.448   0.474   0.481   0.484   0.486   0.486
  0.489   0.493   0.499   0.501   0.506   0.515   0.520   0.522
  0.525   0.529   0.532   0.533   0.536   0.538   0.546   0.548
  0.552   0.555   0.559   0.562   0.569   0.574   0.580   0.588
  0.592   0.597   0.608   0.609   0.611   0.615   0.618   0.620
  0.622   0.627   0.634   0.637   0.637   0.644   0.654   0.655
  0.666   0.669   0.670   0.677   0.684   0.689   0.691   0.694
  0.698   0.702   0.704   0.709   0.713   0.724   0.725   0.727
  0.728   0.731   0.733   0.745   0.755   0.767   0.776   0.779
  0.793   0.793   0.797   0.797   0.805   0.810   0.812   0.824
  0.831   0.834   0.842   0.850   0.855   0.863   0.865   0.877
  0.878   0.881   0.882   0.884   0.887   0.888   0.890   0.894
  0.901   0.903   0.911   0.917   0.920   0.922   0.925   0.928
  0.932   0.935   0.941   0.945   0.949   0.951   0.955   0.962
  0.963   0.967   0.976   0.984   0.987   0.996   1.009   1.024
  1.025   1.046   1.051   1.055   1.062   1.068   1.078   1.084
  1.093   1.102   1.111   1.130   1.133   1.147   1.157   1.170
  1.173   1.184   1.189   1.200   1.200   1.213   1.241   1.250
  1.260   1.269   1.278   1.288   1.298   1.306   1.335   1.337
  1.349   1.378   1.407   1.426   1.441   1.465   1.494   1.513
  1.523   1.530   1.552   1.568   1.589   1.600   1.654   1.729
  1.815
 --------------------------------------------------------------
 
          Ground-State Mulliken Net Atomic Charges

     Atom                 Charge (a.u.)
  ----------------------------------------
      1 C                    -0.141409
      2 C                    -0.078334
      3 C                    -0.161777
      4 C                     0.148146
      5 C                    -0.115635
      6 C                    -0.156715
      7 H                     0.095108
      8 H                     0.085614
      9 H                     0.097841
     10 C                     0.098290
     11 H                     0.096692
     12 C                     0.088277
     13 C                    -0.274790
     14 C                    -0.216278
     15 H                     0.109837
     16 H                     0.120848
     17 C                    -0.205070
     18 H                     0.114531
     19 H                     0.099208
     20 C                     0.004811
     21 H                     0.096550
     22 H                     0.104997
     23 C                    -0.439157
     24 H                     0.138786
     25 H                     0.126684
     26 H                     0.121329
     27 C                    -0.368400
     28 H                     0.121859
     29 H                     0.113173
     30 H                     0.117118
     31 C                    -0.357993
     32 H                     0.118114
     33 H                     0.110787
     34 H                     0.108925
     35 C                     0.154054
     36 C                    -0.166388
     37 C                    -0.082512
     38 C                    -0.082257
     39 H                     0.094726
     40 H                     0.087428
     41 H                     0.087979
     42 C                    -0.166390
     43 C                     0.154197
     44 C                    -0.140380
     45 C                    -0.078247
     46 H                     0.095861
     47 H                     0.089048
     48 C                    -0.157636
     49 C                     0.150790
     50 H                     0.087549
     51 C                    -0.074386
     52 C                    -0.281842
     53 H                     0.105101
     54 H                     0.091642
     55 H                     0.103087
     56 H                     0.094596
     57 H                     0.087837
     58 C                    -0.452423
     59 H                     0.128201
     60 H                     0.139842
     61 H                     0.138831
     62 C                    -0.452290
     63 H                     0.129811
     64 H                     0.140060
     65 H                     0.140244
     66 C                    -0.452175
     67 H                     0.129998
     68 H                     0.140176
     69 H                     0.140114
     70 C                    -0.453938
     71 H                     0.128120
     72 H                     0.139823
     73 H                     0.139784
  ----------------------------------------
  Sum of atomic charges =    -0.000000

 -----------------------------------------------------------------
                    Cartesian Multipole Moments
 -----------------------------------------------------------------
    Charge (ESU x 10^10)
                -0.0000
    Dipole Moment (Debye)
         X      -1.4147      Y       0.2836      Z      -0.0554
       Tot       1.4439
    Quadrupole Moments (Debye-Ang)
        XX    -187.1479     XY       4.3044     YY    -177.9904
        XZ       1.0870     YZ       2.9036     ZZ    -199.9897
    Octopole Moments (Debye-Ang^2)
       XXX    -175.2900    XXY      74.9867    XYY      26.4950
       YYY      -7.0088    XXZ      11.7045    XYZ      16.2572
       YYZ      -3.5963    XZZ     -38.7183    YZZ       3.8252
       ZZZ      -0.8594
    Hexadecapole Moments (Debye-Ang^3)
      XXXX  -73537.7434   XXXY     507.9198   XXYY  -12090.6231
      XYYY     -15.2862   YYYY   -2458.9731   XXXZ      36.5505
      XXYZ     150.2157   XYYZ      -4.2272   YYYZ      20.8658
      XXZZ  -13034.4248   XYZZ       9.2665   YYZZ    -528.1591
      XZZZ     -15.2422   YZZZ      16.4102   ZZZZ    -701.9482
 -----------------------------------------------------------------
 Calculating analytic gradient of the SCF energy
 Gradient of SCF Energy
            1           2           3           4           5           6
    1  -0.0201938   0.0198368  -0.0192837   0.0133532  -0.0114994   0.0106917
    2   0.0083099  -0.0113142   0.0108452  -0.0075032   0.0117041  -0.0103212
    3   0.0011904  -0.0014089   0.0012017  -0.0005089   0.0006225  -0.0018847
            7           8           9          10          11          12
    1   0.0013561   0.0004421  -0.0013045  -0.0075695   0.0014422  -0.0003279
    2   0.0036302  -0.0023618  -0.0032258  -0.0020594   0.0027193   0.0070439
    3   0.0005037  -0.0004471  -0.0003455   0.0003838   0.0020813   0.0028132
           13          14          15          16          17          18
    1   0.0012685   0.0044313  -0.0038733   0.0021502   0.0015069   0.0002463
    2  -0.0005170  -0.0035951  -0.0011113  -0.0011054  -0.0007312  -0.0012129
    3   0.0035937  -0.0011558  -0.0014526   0.0005073  -0.0017745  -0.0001984
           19          20          21          22          23          24
    1  -0.0003344   0.0001025  -0.0018014   0.0000904   0.0009760  -0.0012164
    2   0.0018938   0.0019281   0.0001614   0.0027834   0.0016063   0.0011175
    3   0.0004725  -0.0041054   0.0007879  -0.0000028   0.0060977  -0.0045310
           25          26          27          28          29          30
    1  -0.0017353   0.0010522   0.0027279  -0.0000122  -0.0011692   0.0005301
    2   0.0003614  -0.0032905   0.0036262   0.0000981  -0.0008235  -0.0010510
    3   0.0015468  -0.0029480   0.0033955  -0.0013815   0.0001968  -0.0002086
           31          32          33          34          35          36
    1  -0.0027423   0.0006419   0.0008170  -0.0004328   0.0188841  -0.0243318
    2   0.0032312   0.0011412  -0.0014208  -0.0014611  -0.0054250   0.0059211
    3  -0.0034078   0.0010257  -0.0002206   0.0008267  -0.0006533   0.0006843
           37          38          39          40          41          42
    1   0.0253544  -0.0252263   0.0004802   0.0010445  -0.0007251   0.0240151
    2  -0.0058992   0.0058009   0.0036105  -0.0021870  -0.0023308  -0.0060962
    3  -0.0006438   0.0007773   0.0006267  -0.0004813  -0.0004358  -0.0007817
           43          44          45          46          47          48
    1  -0.0183263   0.0193359  -0.0185053  -0.0014805   0.0007892   0.0172088
    2   0.0054615  -0.0086533   0.0112762  -0.0036620   0.0023719  -0.0109110
    3   0.0007911  -0.0013181   0.0016013  -0.0004978   0.0003334  -0.0015580
           49          50          51          52          53          54
    1  -0.0094831  -0.0002423   0.0056157  -0.0019773  -0.0016336   0.0030633
    2   0.0073019   0.0024224  -0.0093664   0.0020326  -0.0014675   0.0017702
    3   0.0009998   0.0004473  -0.0013780   0.0002154  -0.0001836   0.0003391
           55          56          57          58          59          60
    1  -0.0021091  -0.0005217  -0.0010154   0.0006706  -0.0008889   0.0006860
    2  -0.0002668  -0.0036176   0.0022422   0.0014573  -0.0017648   0.0009536
    3  -0.0000659  -0.0007149   0.0004108   0.0005720  -0.0002977  -0.0019311
           61          62          63          64          65          66
    1   0.0005658   0.0004296  -0.0004362   0.0003524   0.0003469  -0.0005218
    2   0.0003204   0.0019752  -0.0017654   0.0010157   0.0003660  -0.0017607
    3   0.0020590   0.0002486  -0.0002965  -0.0018299   0.0020827  -0.0002903
           67          68          69          70          71          72
    1   0.0005397  -0.0003767  -0.0003979  -0.0008796   0.0009352  -0.0006756
    2   0.0017872  -0.0003830  -0.0010110  -0.0011622   0.0016258  -0.0002392
    3   0.0002923  -0.0020541   0.0018467  -0.0001890   0.0002381  -0.0020461
           73
    1  -0.0007299
    2  -0.0008394
    3   0.0018161
 Max gradient component =       2.535E-02
 RMS gradient           =       5.964E-03
 Gradient time:  CPU 33.62 s  wall 9.23 s
 Geometry Optimization Parameters
   NAtoms,    NIC,     NZ,  NCons,   NDum,   NFix, NCnnct, MaxDiis
       73     508       0       0       0       0       0       0

 Cartesian Hessian Update
 Hessian Updated using BFGS Update


** GEOMETRY OPTIMIZATION IN DELOCALIZED INTERNAL COORDINATES **
   Searching for a Minimum

   Optimization Cycle:   2

                       Coordinates (Angstroms)
     ATOM                X               Y               Z
      1  C        -0.5307272916   -0.5013321013   -0.1212588428
      2  C        -1.7265695032   -1.1546540830   -0.2518615814
      3  C        -3.0090101012   -0.4486735826   -0.1608873936
      4  C        -4.2690407637   -0.9867780566   -0.2847374228
      5  C        -5.4311237508   -0.0763011178   -0.1540634963
      6  C        -6.7385898767   -0.4634749855   -0.2339713378
      7  H        -1.7287299759   -2.2267304313   -0.4311077831
      8  H        -2.9283065412    0.6263265481    0.0254551307
      9  H        -5.1888240708    0.9628240540    0.0638445605
     10  C        -7.9506467142    0.3959008144   -0.0683890151
     11  H        -6.9407173355   -1.5287886051   -0.3411328437
     12  C        -8.0607091844    1.6917660603   -0.5344078716
     13  C        -9.3218285527    2.5313594626   -0.3211165307
     14  C       -10.5705023413    1.6972381413    0.0205836988
     15  H        -9.5389341923    3.1251961780   -1.2327541287
     16  H        -9.1145860525    3.2632223116    0.4892274578
     17  C       -10.2157936755    0.7077090678    1.1372263330
     18  H       -10.9131039559    1.1501029422   -0.8778227513
     19  H       -11.3957460528    2.3706898519    0.3265893536
     20  C        -9.1256123537   -0.3128144686    0.6791546158
     21  H       -11.1093873352    0.1575758083    1.4936087899
     22  H        -9.8339062987    1.2944566036    1.9989682086
     23  C        -7.0169708485    2.4251939129   -1.3656493194
     24  H        -6.1858565563    1.7992756989   -1.7167235960
     25  H        -6.6140393066    3.2978871107   -0.8154114112
     26  H        -7.4943340942    2.8128850720   -2.2897750785
     27  C        -9.7600395540   -1.3889866832   -0.2567788711
     28  H       -10.1298699023   -0.9471450007   -1.1993716841
     29  H       -10.6098571357   -1.8905336951    0.2462175717
     30  H        -9.0319243769   -2.1750009785   -0.5289794938
     31  C        -8.6077698143   -1.0235580404    1.9697906074
     32  H        -8.1298814586   -0.2976028071    2.6542817228
     33  H        -7.8664701998   -1.8123491002    1.7468677189
     34  H        -9.4473146616   -1.5047736438    2.5085085575
     35  C         0.8029316825   -1.1327737355   -0.2023182372
     36  C         1.9115122460   -0.3288213019   -0.0597344408
     37  C         3.3181115061   -0.7362931550   -0.1108719908
     38  C         4.3451084999    0.1582676387    0.0377443844
     39  H         3.5648346427   -1.7846720143   -0.2754064028
     40  H         1.7493338910    0.7398047174    0.1085879082
     41  H        -0.5424421617    0.5779466407    0.0546113583
     42  C         5.7505282931   -0.2530235921   -0.0172163996
     43  C         6.8640164267    0.5460147885    0.1125760161
     44  C         8.1921807554   -0.0965583052    0.0245559213
     45  C         9.3957414211    0.5458730844    0.1308806009
     46  H         9.4135361290    1.6203792858    0.2938657705
     47  H         8.1923851202   -1.1778710378   -0.1389314240
     48  C        10.6680275844   -0.1789319008    0.0316301385
     49  C        11.9368147244    0.3412906169    0.1215593226
     50  H        10.5702323849   -1.2562182342   -0.1322084322
     51  C        13.0824057112   -0.5909868816   -0.0096619945
     52  C        14.3914714356   -0.2435993044    0.0560963706
     53  H        14.7185247079    0.7830499139    0.2158870800
     54  H        12.8387929224   -1.6443639521   -0.1723949827
     55  H        15.1703060810   -0.9993568672   -0.0512818761
     56  H         4.1000681837    1.2073226497    0.2002354389
     57  H         5.9077316862   -1.3230261571   -0.1816489924
     58  C        -4.5356320275   -2.4598326751   -0.5507146548
     59  H        -3.6212273850   -3.0631134500   -0.6410303254
     60  H        -5.1049568957   -2.5848105449   -1.4920844261
     61  H        -5.1348841078   -2.8984588507    0.2707117676
     62  C         0.8710666163   -2.6327613580   -0.4416929202
     63  H         1.8973719971   -3.0231195331   -0.4895765211
     64  H         0.3765596758   -2.8942577231   -1.3971824729
     65  H         0.3518664447   -3.1769840184    0.3709481195
     66  C         6.8077734990    2.0481694003    0.3408891858
     67  H         5.7844855693    2.4456633670    0.3938909184
     68  H         7.3241135468    2.5827920602   -0.4799289105
     69  H         7.3115337477    2.3136329499    1.2904623053
     70  C        12.2412552270    1.8126683052    0.3475792111
     71  H        11.3422749833    2.4391911830    0.4347414781
     72  H        12.8418404257    2.2148499179   -0.4912047168
     73  H        12.8264689905    1.9462423914    1.2780550254
   Point Group: c1    Number of degrees of freedom:   213


   Energy is  -1205.570127833

 Hessian Updated using BFGS Update

172 Hessian modes will be used to form the next step
  Hessian Eigenvalues:
     0.002698    0.002777    0.004041    0.006861    0.006911    0.006913
     0.006929    0.006930    0.008203    0.008451    0.009435    0.009598
     0.009599    0.009857    0.010038    0.010706    0.010766    0.010790
     0.010793    0.010795    0.013618    0.013716    0.013717    0.013824
     0.014133    0.018861    0.019515    0.019530    0.019579    0.019580
     0.019580    0.019581    0.019582    0.019966    0.019975    0.019996
     0.020054    0.020055    0.027985    0.028065    0.028070    0.028099
     0.029101    0.029523    0.029530    0.029961    0.030435    0.030435
     0.031028    0.032084    0.045326    0.046878    0.050013    0.052542
     0.053486    0.053723    0.053910    0.054562    0.054982    0.060442
     0.065499    0.067989    0.068007    0.068085    0.068143    0.068146
     0.074210    0.074275    0.074293    0.074366    0.075040    0.077269
     0.078143    0.082114    0.095411    0.097712    0.120302    0.133225
     0.153584    0.159021    0.159616    0.159911    0.168567    0.185542
     0.206960    0.220022    0.220085    0.221891    0.227380    0.247432
     0.249665    0.249995    0.249999    0.250000    0.250000    0.250000
     0.250000    0.250000    0.262711    0.264636    0.270508    0.277368
     0.278666    0.282047    0.291981    0.297213    0.305694    0.306130
     0.306441    0.306529    0.306602    0.310074    0.316244    0.321407
     0.323479    0.323883    0.324045    0.324110    0.324433    0.324499
     0.324721    0.325523    0.325777    0.325803    0.325804    0.325806
     0.325809    0.325822    0.325836    0.325853    0.325946    0.326228
     0.326637    0.327106    0.327125    0.327310    0.327826    0.328837
     0.331359    0.334768    0.334807    0.334951    0.335553    0.336758
     0.336894    0.336935    0.337203    0.350103    0.350146    0.350165
     0.350279    0.350381    0.350569    0.351514    0.353885    0.355289
     0.356206    0.358420    0.358539    0.359529    0.362503    0.363089
     0.469119    0.532868    0.534251    0.535177    0.537020    0.552450
     0.558411    0.560768    0.566616    0.586895

 Minimum Search - Taking Simple RFO Step
 Searching for Lamda that Minimizes Along All modes
 Value Taken    Lamda =  -0.01251268
 Step Taken.  Stepsize is  0.281828

                             Maximum     Tolerance    Cnvgd?
         Gradient           0.024285      0.000300      NO
         Displacement       0.101903      0.001200      NO
         Energy change     -0.022817      0.000001      NO


 New Cartesian Coordinates Obtained by Inverse Iteration

 Displacement from previous Coordinates is:  1.285065
 ----------------------------------------------------------------
             Standard Nuclear Orientation (Angstroms)
    I     Atom           X                Y                Z
 ----------------------------------------------------------------
    1      C      -0.5205213778    -0.4880867885    -0.0851266487
    2      C      -1.7394891855    -1.1265882830    -0.2203256000
    3      C      -3.0023127852    -0.4448362986    -0.1340723371
    4      C      -4.2723525620    -0.9840261514    -0.2790890682
    5      C      -5.4268056410    -0.0986773531    -0.1330798551
    6      C      -6.7471490537    -0.4678162578    -0.2328294696
    7      H      -1.7554386523    -2.2051100568    -0.4032003764
    8      H      -2.9354581955     0.6322523372     0.0724724525
    9      H      -5.1800354921     0.9406631824     0.1125388071
   10      C      -7.9449459093     0.3792308790    -0.0594080776
   11      H      -6.9631539926    -1.5295615218    -0.3950963423
   12      C      -8.0282303453     1.6753438212    -0.5073305512
   13      C      -9.2763651814     2.5457134845    -0.2959177183
   14      C     -10.5536545043     1.7301722261     0.0215841007
   15      H      -9.4364463565     3.1728794890    -1.1932731860
   16      H      -9.0775811879     3.2584238735     0.5332543030
   17      C     -10.2275795134     0.6890719575     1.1156671373
   18      H     -10.8982573321     1.2192435257    -0.8955993475
   19      H     -11.3713598185     2.4016514562     0.3396247850
   20      C      -9.1457760378    -0.3435110197     0.6513282248
   21      H     -11.1318748939     0.1398019642     1.4333657333
   22      H      -9.8476032294     1.2224283210     2.0082757930
   23      C      -6.9329816734     2.3818182465    -1.2972535434
   24      H      -6.1208962893     1.7083882794    -1.6038760246
   25      H      -6.4891429047     3.2166452828    -0.7218272571
   26      H      -7.3638549578     2.8318104585    -2.2135108451
   27      C      -9.7960910875    -1.3786815658    -0.3315323560
   28      H     -10.1573657088    -0.8924577305    -1.2523895045
   29      H     -10.6527969592    -1.8793976400     0.1540014914
   30      H      -9.0811180804    -2.1636666731    -0.6305350693
   31      C      -8.6586273866    -1.1071040602     1.9308328119
   32      H      -8.1738796211    -0.4144328947     2.6391213924
   33      H      -7.9359416678    -1.9045557730     1.6949068953
   34      H      -9.5204532949    -1.5735918297     2.4407612700
   35      C       0.7912753973    -1.1036413610    -0.1536106724
   36      C       1.9158674189    -0.2958062986    -0.0215618191
   37      C       3.2911717797    -0.6935861315    -0.0675997138
   38      C       4.3554507113     0.1866726227     0.0534762826
   39      H       3.5169889220    -1.7564954720    -0.2130069647
   40      H       1.7459252105     0.7788319639     0.1311189549
   41      H      -0.5224962725     0.5963439720     0.0891333960
   42      C       5.7278872696    -0.2216821752     0.0049929440
   43      C       6.8633595825     0.5750704066     0.0997365461
   44      C       8.1638684460    -0.0663451069     0.0374998414
   45      C       9.3982891219     0.5497323154     0.1086183959
   46      H       9.4475095083     1.6369775775     0.2210857418
   47      H       8.1408699866    -1.1586500442    -0.0761415792
   48      C      10.6405378304    -0.1760886039     0.0442083075
   49      C      11.9275406605     0.3290377999     0.1083878474
   50      H      10.5353971250    -1.2641383970    -0.0688820061
   51      C      13.0521475199    -0.6095943204     0.0246701700
   52      C      14.3779778251    -0.3001904187     0.0692158468
   53      H      14.7425819421     0.7247562101     0.1744765902
   54      H      12.7660743017    -1.6642607848    -0.0843682585
   55      H      15.1418695754    -1.0785967466    -0.0011267997
   56      H       4.1342739418     1.2513619278     0.1928452204
   57      H       5.8857885001    -1.3014525320    -0.1232104635
   58      C      -4.5178236420    -2.4564080892    -0.5822084850
   59      H      -3.5823566809    -3.0249660084    -0.6785338140
   60      H      -5.0830031820    -2.5795602499    -1.5232853878
   61      H      -5.1152066533    -2.9330024246     0.2160138304
   62      C       0.8731083845    -2.6099527028    -0.3713966296
   63      H       1.9100645668    -2.9719817495    -0.4064205961
   64      H       0.3858941971    -2.9021071627    -1.3187210686
   65      H       0.3570587489    -3.1560106688     0.4386006765
   66      C       6.8072925895     2.0884695113     0.2661840471
   67      H       5.7760860932     2.4671139365     0.3003754713
   68      H       7.3218802160     2.5982160771    -0.5681260450
   69      H       7.3104160293     2.4055290703     1.1971493720
   70      C      12.2444509202     1.8091160802     0.2626352103
   71      H      11.3384337997     2.4291013832     0.3163788977
   72      H      12.8511527944     2.1738755774    -0.5857633158
   73      H      12.8332767457     1.9943107063     1.1792400840
 ----------------------------------------------------------------
 Molecular Point Group                 C1    NOp =  1
 Largest Abelian Subgroup              C1    NOp =  1
 Nuclear Repulsion Energy =  2444.8721115860 hartrees
 There are      114 alpha and      114 beta electrons
 Applying Cartesian multipole field
    Component          Value
    ---------          -----
     (2,0,0)        1.00000E-12
     (0,2,0)        2.00000E-11
     (0,0,2)       -3.00000E-11
 Nucleus-field energy     =     0.0000000758 hartrees
 Requested basis set is 6-31G
 There are 177 shells and 363 basis functions
 A cutoff of  1.0D-11 yielded   5736 shell pairs
 There are     26556 function pairs
 Smallest overlap matrix eigenvalue = 1.63E-03
 Guess MOs from SCF MO coefficient file

 -----------------------------------------------------------------------
  General SCF calculation program by
  Eric Jon Sundstrom, Paul Horn, Yuezhi Mao, Dmitri Zuev, Alec White,
  David Stuck, Shaama M.S., Shane Yost, Joonho Lee, David Small,
  Daniel Levine, Susi Lehtola, Hugh Burton, Evgeny Epifanovsky
 -----------------------------------------------------------------------
 Exchange:  B88      Correlation:  LYP
 Using SG-1 standard quadrature grid
 using 4 threads for integral computing
 -------------------------------------------------------
 OpenMP Integral computing Module                
 Release: version 1.0, May 2013, Q-Chem Inc. Pittsburgh 
 -------------------------------------------------------
 -------------------------------------------------------
 OpenMP BLAS3 based DFT computing Module                
 Release: version 1.0, May 2013, Q-Chem Inc. Pittsburgh 
 -------------------------------------------------------
 A restricted SCF calculation will be
 performed using DIIS
 SCF converges when DIIS error is below 1.0e-08
 ---------------------------------------
  Cycle       Energy         DIIS error
 ---------------------------------------
    1   -1205.5627050817      5.74e-04  
    2   -1205.5762869026      8.48e-05  
    3   -1205.5753955008      2.09e-04  
    4   -1205.5763721064      5.48e-05  
    5   -1205.5764361942      2.41e-05  
    6   -1205.5764470910      1.16e-05  
    7   -1205.5764499012      2.15e-06  
    8   -1205.5764499872      8.77e-07  
    9   -1205.5764500062      4.04e-07  
   10   -1205.5764500102      1.11e-07  
   11   -1205.5764500104      5.59e-08  
   12   -1205.5764500105      2.07e-08  
   13   -1205.5764500105      6.05e-09  Convergence criterion met
 ---------------------------------------
 SCF time:   CPU 207.52s  wall 52.00s 
 SCF   energy in the final basis set =    -1205.5764500105
 Total energy in the final basis set =    -1205.5764500105
 
 --------------------------------------------------------------
 
                    Orbital Energies (a.u.)
 --------------------------------------------------------------
 
 Alpha MOs
 -- Occupied --
 -9.933  -9.932  -9.932  -9.930  -9.929  -9.923  -9.921  -9.921
 -9.919  -9.919  -9.919  -9.919  -9.918  -9.918  -9.918  -9.918
 -9.917  -9.917  -9.916  -9.915  -9.915  -9.915  -9.915  -9.914
 -9.913  -9.911  -9.908  -9.908  -9.905  -9.904  -9.901  -0.755
 -0.746  -0.741  -0.733  -0.727  -0.703  -0.696  -0.689  -0.676
 -0.663  -0.642  -0.639  -0.627  -0.613  -0.611  -0.604  -0.603
 -0.594  -0.591  -0.564  -0.543  -0.525  -0.508  -0.496  -0.483
 -0.481  -0.471  -0.467  -0.459  -0.449  -0.437  -0.429  -0.418
 -0.413  -0.407  -0.403  -0.391  -0.387  -0.383  -0.377  -0.369
 -0.366  -0.364  -0.364  -0.363  -0.362  -0.360  -0.359  -0.348
 -0.346  -0.342  -0.339  -0.336  -0.334  -0.332  -0.329  -0.325
 -0.320  -0.317  -0.314  -0.310  -0.309  -0.304  -0.299  -0.297
 -0.293  -0.291  -0.288  -0.287  -0.285  -0.283  -0.278  -0.273
 -0.269  -0.258  -0.252  -0.246  -0.240  -0.226  -0.203  -0.184
 -0.162  -0.137
 -- Virtual --
 -0.091  -0.059  -0.030  -0.002   0.020   0.042   0.055   0.058
  0.062   0.067   0.069   0.074   0.080   0.082   0.083   0.085
  0.086   0.090   0.092   0.099   0.101   0.103   0.110   0.115
  0.117   0.122   0.127   0.130   0.133   0.134   0.139   0.142
  0.144   0.150   0.155   0.156   0.158   0.159   0.162   0.163
  0.166   0.169   0.171   0.175   0.181   0.184   0.186   0.192
  0.195   0.196   0.200   0.202   0.205   0.209   0.212   0.215
  0.217   0.222   0.223   0.228   0.242   0.247   0.249   0.252
  0.256   0.271   0.297   0.322   0.323   0.336   0.345   0.356
  0.367   0.372   0.377   0.383   0.400   0.401   0.408   0.416
  0.427   0.433   0.449   0.473   0.479   0.483   0.486   0.487
  0.491   0.492   0.498   0.500   0.505   0.516   0.520   0.526
  0.527   0.529   0.531   0.531   0.535   0.538   0.547   0.549
  0.550   0.556   0.559   0.560   0.566   0.574   0.580   0.587
  0.591   0.595   0.602   0.606   0.607   0.611   0.614   0.616
  0.618   0.626   0.632   0.636   0.639   0.642   0.653   0.656
  0.665   0.666   0.670   0.679   0.685   0.691   0.693   0.695
  0.697   0.704   0.706   0.709   0.712   0.721   0.722   0.724
  0.728   0.729   0.730   0.746   0.756   0.770   0.775   0.781
  0.791   0.794   0.794   0.796   0.804   0.808   0.811   0.820
  0.829   0.834   0.842   0.850   0.855   0.862   0.866   0.876
  0.878   0.881   0.882   0.883   0.885   0.888   0.891   0.894
  0.901   0.903   0.910   0.916   0.923   0.925   0.925   0.929
  0.932   0.936   0.942   0.948   0.949   0.956   0.960   0.963
  0.966   0.969   0.978   0.985   0.992   0.994   1.010   1.022
  1.031   1.048   1.051   1.057   1.062   1.065   1.076   1.082
  1.089   1.101   1.112   1.131   1.132   1.144   1.152   1.171
  1.174   1.184   1.185   1.192   1.198   1.209   1.241   1.251
  1.262   1.272   1.279   1.289   1.292   1.308   1.332   1.339
  1.351   1.377   1.407   1.435   1.440   1.473   1.500   1.519
  1.523   1.532   1.550   1.566   1.587   1.599   1.647   1.722
  1.804
 --------------------------------------------------------------
 
          Ground-State Mulliken Net Atomic Charges

     Atom                 Charge (a.u.)
  ----------------------------------------
      1 C                    -0.147453
      2 C                    -0.079533
      3 C                    -0.157099
      4 C                     0.149339
      5 C                    -0.123058
      6 C                    -0.159558
      7 H                     0.095048
      8 H                     0.086184
      9 H                     0.099715
     10 C                     0.095970
     11 H                     0.096318
     12 C                     0.092699
     13 C                    -0.273953
     14 C                    -0.216973
     15 H                     0.109511
     16 H                     0.121460
     17 C                    -0.207135
     18 H                     0.114965
     19 H                     0.100547
     20 C                     0.010764
     21 H                     0.097370
     22 H                     0.105863
     23 C                    -0.442522
     24 H                     0.141463
     25 H                     0.127102
     26 H                     0.120003
     27 C                    -0.369236
     28 H                     0.122434
     29 H                     0.113884
     30 H                     0.116952
     31 C                    -0.360749
     32 H                     0.119189
     33 H                     0.112433
     34 H                     0.109927
     35 C                     0.155294
     36 C                    -0.161081
     37 C                    -0.085720
     38 C                    -0.083953
     39 H                     0.094599
     40 H                     0.088023
     41 H                     0.087348
     42 C                    -0.162380
     43 C                     0.156354
     44 C                    -0.147264
     45 C                    -0.078150
     46 H                     0.095558
     47 H                     0.088381
     48 C                    -0.155274
     49 C                     0.153158
     50 H                     0.088138
     51 C                    -0.078090
     52 C                    -0.283462
     53 H                     0.104809
     54 H                     0.090701
     55 H                     0.104590
     56 H                     0.094452
     57 H                     0.088438
     58 C                    -0.452311
     59 H                     0.127994
     60 H                     0.139947
     61 H                     0.138894
     62 C                    -0.451875
     63 H                     0.129361
     64 H                     0.140101
     65 H                     0.140504
     66 C                    -0.451663
     67 H                     0.129276
     68 H                     0.140375
     69 H                     0.140154
     70 C                    -0.454176
     71 H                     0.127435
     72 H                     0.139844
     73 H                     0.139798
  ----------------------------------------
  Sum of atomic charges =    -0.000000

 -----------------------------------------------------------------
                    Cartesian Multipole Moments
 -----------------------------------------------------------------
    Charge (ESU x 10^10)
                -0.0000
    Dipole Moment (Debye)
         X      -1.8018      Y       0.3076      Z      -0.0587
       Tot       1.8288
    Quadrupole Moments (Debye-Ang)
        XX    -186.6887     XY       4.6583     YY    -178.2436
        XZ       0.6404     YZ       2.4530     ZZ    -200.2241
    Octopole Moments (Debye-Ang^2)
[...]
     0.291747    0.297306    0.300570    0.304942    0.306256    0.306538
     0.306851    0.308517    0.311879    0.321332    0.322875    0.323499
     0.323968    0.324009    0.324421    0.324468    0.324570    0.324710
     0.325271    0.325739    0.325792    0.325801    0.325808    0.325810
     0.325823    0.325838    0.325933    0.326452    0.326709    0.326858
     0.327318    0.327587    0.328158    0.328915    0.332535    0.334782
     0.334881    0.334996    0.335172    0.336739    0.336900    0.337173
     0.343389    0.349672    0.350107    0.350155    0.350200    0.350345
     0.350449    0.350921    0.351511    0.353824    0.355282    0.357820
     0.358534    0.360179    0.362460    0.363912    0.364300    0.432233
     0.527063    0.534055    0.535709    0.537510    0.548783    0.557795
     0.558540    0.563054    0.566904    0.584062

 Minimum Search - Taking Simple RFO Step
 Searching for Lamda that Minimizes Along All modes
 Value Taken    Lamda =   0.00000000
 Step Taken.  Stepsize is  0.004257

                             Maximum     Tolerance    Cnvgd?
         Gradient           0.000032      0.000300     YES
         Displacement       0.001520      0.001200      NO
         Energy change     -0.000000      0.000001     YES

 Final energy is   -1205.57757086714     


 ******************************
 **  OPTIMIZATION CONVERGED  **
 ******************************

                       Coordinates (Angstroms)
     ATOM                X               Y               Z
      1  C        -0.5170087804   -0.4722515175   -0.0801551840
      2  C        -1.7403497224   -1.1095481576   -0.2209838828
      3  C        -3.0016816076   -0.4286039873   -0.1440970317
      4  C        -4.2775318471   -0.9634533864   -0.2980914471
      5  C        -5.4273336919   -0.0789053112   -0.1498257721
      6  C        -6.7483636803   -0.4526096356   -0.2425147844
      7  H        -1.7470331913   -2.1887692883   -0.3991525941
      8  H        -2.9439730114    0.6486064497    0.0645806359
      9  H        -5.1877567440    0.9612961678    0.0949847123
     10  C        -7.9519905699    0.3839182203   -0.0628601205
     11  H        -6.9525252794   -1.5174374990   -0.4015641838
     12  C        -8.0687327972    1.6771049904   -0.5259978643
     13  C        -9.3244071805    2.5271176940   -0.3026538814
     14  C       -10.5846429227    1.7098233742    0.0641737218
     15  H        -9.5137173619    3.1343508386   -1.2086284765
     16  H        -9.1147364251    3.2639986356    0.5037356708
     17  C       -10.2254403168    0.6602428730    1.1365908017
     18  H       -10.9759284995    1.2080264490   -0.8400233892
     19  H       -11.3847730218    2.3807297245    0.4261023952
     20  C        -9.1392969379   -0.3559931453    0.6495235051
     21  H       -11.1214162156    0.0957868511    1.4554948864
     22  H        -9.8441750409    1.1850116811    2.0347032566
     23  C        -6.9838673722    2.4018560134   -1.3167495094
     24  H        -6.2703209693    1.7089630264   -1.7864267270
     25  H        -6.3996122918    3.0960801370   -0.6796570812
     26  H        -7.4430331872    3.0206847129   -2.1092799867
     27  C        -9.7876048195   -1.3841546902   -0.3410789470
     28  H       -10.2052820023   -0.8803138714   -1.2280439051
     29  H       -10.6023383124   -1.9349527840    0.1628401500
     30  H        -9.0540758519   -2.1280240180   -0.6964269688
     31  C        -8.6303398326   -1.1285023806    1.9126490961
     32  H        -8.1245747635   -0.4417544767    2.6128940889
     33  H        -7.9180634892   -1.9294370511    1.6554343925
     34  H        -9.4844307811   -1.5907697780    2.4400568036
     35  C         0.7871085056   -1.0919661622   -0.1386216142
     36  C         1.9213221357   -0.2848658663   -0.0089266357
     37  C         3.2937565752   -0.6811540163   -0.0523637968
     38  C         4.3639511084    0.2001502232    0.0638649072
     39  H         3.5299361586   -1.7422669339   -0.1923127832
     40  H         1.7412076538    0.7888305930    0.1380153226
     41  H        -0.5263835732    0.6130389732    0.0886270334
     42  C         5.7330767973   -0.2093492898    0.0181552405
     43  C         6.8796477897    0.5844472609    0.1024325255
     44  C         8.1715685658   -0.0634576962    0.0507869604
     45  C         9.4119213324    0.5488544812    0.1130194149
     46  H         9.4571999473    1.6377169742    0.2077531480
     47  H         8.1530885644   -1.1575359125   -0.0461540446
     48  C        10.6501909775   -0.1820123257    0.0620356966
     49  C        11.9448984900    0.3139154331    0.1150546383
     50  H        10.5474073321   -1.2721612203   -0.0303093038
     51  C        13.0588362460   -0.6361194761    0.0497153824
     52  C        14.3865542498   -0.3362731251    0.0833396379
     53  H        14.7582198178    0.6882865889    0.1636372704
     54  H        12.7668882916   -1.6914650993   -0.0335548751
     55  H        15.1451134868   -1.1203625032    0.0294826058
     56  H         4.1340723319    1.2633227140    0.1981278341
     57  H         5.8982793061   -1.2892809769   -0.0982853590
     58  C        -4.5218192770   -2.4352411330   -0.6105954150
     59  H        -3.5875189413   -2.9999950018   -0.7310880525
     60  H        -5.1045411981   -2.5495731355   -1.5427069423
     61  H        -5.1048674475   -2.9218290963    0.1934008791
     62  C         0.8727422712   -2.6012361052   -0.3458040600
     63  H         1.9081864856   -2.9672326972   -0.3459405893
     64  H         0.4135095324   -2.8973531407   -1.3066961004
     65  H         0.3286941042   -3.1402086297    0.4510279041
     66  C         6.8228782467    2.1018406997    0.2446063076
     67  H         5.7927818180    2.4825851059    0.2660540398
     68  H         7.3433149739    2.5965842905   -0.5959120804
     69  H         7.3229886509    2.4339018830    1.1726569175
     70  C        12.2713002920    1.7954535780    0.2367719472
     71  H        11.3714950740    2.4248954286    0.2756239911
     72  H        12.8824383005    2.1360539467   -0.6194315207
     73  H        12.8622538947    1.9963810846    1.1495032639

Z-matrix Print:
$molecule
0 1
C 
C  1 1.378571
C  1 1.476744 2 124.023542
H  3 1.095827 1 114.598010 2 -144.574842 0
C  3 1.375997 1 128.349371 2 39.988599 0
H  5 1.095148 3 118.884357 1 0.571474 0
C  5 1.458236 3 125.831231 1 177.988787 0
C  7 1.391967 5 118.580272 3 -178.546404 0
H  8 1.098753 7 116.478255 5 -1.109826 0
C  8 1.435463 7 128.111580 5 178.760828 0
H  10 1.093850 8 118.124170 7 -1.546549 0
C  10 1.386558 8 123.489584 7 178.521030 0
H  12 1.098376 10 117.530838 8 -0.643190 0
C  12 1.445056 10 126.513712 8 179.657927 0
C  14 1.398096 12 118.738306 10 178.358000 0
H  15 1.098571 14 116.334706 12 0.365388 0
C  15 1.429163 14 128.036338 12 -179.181350 0
H  17 1.096051 15 118.636944 14 -0.733135 0
C  17 1.391231 15 124.091535 14 178.837456 0
H  19 1.095996 17 117.606056 15 0.075559 0
C  19 1.429785 17 123.539154 15 -179.971820 0
H  21 1.098682 19 115.397243 17 -1.112293 0
C  21 1.397083 19 128.404694 17 178.898067 0
C  23 1.446204 21 118.452829 19 179.118282 0
H  24 1.098520 23 115.741756 21 -0.414973 0
C  24 1.384657 23 126.905864 21 179.715874 0
H  26 1.093913 24 118.759916 23 -0.246936 0
C  26 1.438776 24 123.005613 23 179.599449 0
H  28 1.098871 26 115.240796 24 -0.023529 0
C  28 1.387452 26 128.329755 24 -179.993225 0
C  30 1.465501 28 118.416602 26 179.769205 0
H  31 1.098145 30 115.106542 28 -0.271478 0
C  31 1.361570 30 126.680056 28 179.794759 0
H  33 1.092295 31 121.191297 30 179.919657 0
H  33 1.092843 31 122.677555 30 -0.145688 0
C  30 1.521942 28 123.444763 26 -0.274684 0
H  36 1.098798 30 112.633905 28 -0.118641 0
H  36 1.105705 30 110.883558 28 -120.853916 0
H  36 1.105747 30 110.948001 28 120.727090 0
C  7 1.524301 5 118.696534 3 1.259926 0
H  40 1.098354 7 112.496925 5 178.234850 0
H  40 1.105201 7 110.933892 5 57.616375 0
H  40 1.105949 7 111.116436 5 -61.080083 0
C  23 1.525096 21 122.709933 19 -0.953972 0
H  44 1.098419 23 112.433267 21 -0.318851 0
H  44 1.105284 23 111.121385 21 120.466268 0
H  44 1.105485 23 110.908226 21 -120.753915 0
C  2 1.525610 1 124.024420 3 1.666203 0
H  48 1.099930 2 112.542793 1 20.516107 0
H  48 1.105390 2 110.010045 1 141.531098 0
H  48 1.108687 2 111.984552 1 -100.513843 0
C  14 1.525829 12 118.707638 10 -1.371807 0
H  52 1.098225 14 112.493376 12 -178.387454 0
H  52 1.105179 14 110.907427 12 -57.874401 0
H  52 1.105393 14 111.081414 12 60.928519 0
C  2 1.532685 1 122.728842 3 -178.965445 0
H  56 1.106960 2 108.969937 1 -142.160089 0
H  56 1.112304 2 108.579326 1 103.759923 0
C  56 1.546197 2 114.152687 1 -18.542017 0
H  59 1.105132 56 110.298682 2 167.534534 0
H  59 1.105657 56 109.531265 2 -75.333870 0
C  59 1.542960 56 109.555007 2 45.407404 0
H  62 1.105931 59 111.038916 56 177.071701 0
H  62 1.107859 59 108.744790 56 60.004512 0
C  62 1.565145 59 112.763849 56 -60.661083 0
C  65 1.565661 62 107.150971 59 166.834910 0
H  66 1.102267 65 112.353706 62 175.245445 0
H  66 1.103523 65 110.724006 62 -64.280376 0
H  66 1.105134 65 109.887514 62 55.142502 0
C  65 1.568028 62 109.598200 59 -75.391446 0
H  70 1.102278 65 111.425966 62 60.498175 0
H  70 1.103485 65 111.753569 62 -179.196965 0
H  70 1.105036 65 110.094917 62 -59.789748 0
$end

 
 --------------------------------------------------------------
 
                    Orbital Energies (a.u.)
 --------------------------------------------------------------
 
 Alpha MOs
 -- Occupied --
 -9.933  -9.933  -9.932  -9.931  -9.929  -9.923  -9.922  -9.921
 -9.920  -9.920  -9.919  -9.919  -9.919  -9.918  -9.918  -9.918
 -9.918  -9.918  -9.916  -9.915  -9.915  -9.915  -9.915  -9.914
 -9.913  -9.911  -9.908  -9.908  -9.906  -9.904  -9.901  -0.755
 -0.746  -0.741  -0.732  -0.727  -0.703  -0.696  -0.689  -0.676
 -0.663  -0.642  -0.639  -0.627  -0.612  -0.611  -0.604  -0.603
 -0.594  -0.591  -0.565  -0.543  -0.525  -0.508  -0.496  -0.483
 -0.481  -0.471  -0.467  -0.459  -0.449  -0.436  -0.429  -0.418
 -0.413  -0.407  -0.403  -0.392  -0.387  -0.383  -0.378  -0.369
 -0.365  -0.364  -0.363  -0.363  -0.361  -0.360  -0.359  -0.348
 -0.347  -0.342  -0.340  -0.336  -0.334  -0.332  -0.329  -0.326
 -0.320  -0.317  -0.313  -0.310  -0.308  -0.303  -0.299  -0.297
 -0.294  -0.291  -0.288  -0.288  -0.286  -0.284  -0.279  -0.273
 -0.269  -0.259  -0.252  -0.246  -0.240  -0.225  -0.203  -0.184
 -0.162  -0.136
 -- Virtual --
 -0.092  -0.059  -0.031  -0.002   0.019   0.041   0.055   0.058
  0.063   0.067   0.069   0.074   0.080   0.081   0.082   0.084
  0.086   0.089   0.092   0.099   0.101   0.103   0.111   0.115
  0.117   0.122   0.128   0.129   0.131   0.132   0.138   0.142
  0.144   0.149   0.155   0.156   0.157   0.159   0.159   0.165
  0.166   0.168   0.172   0.176   0.181   0.184   0.188   0.193
  0.194   0.196   0.200   0.202   0.205   0.208   0.211   0.215
  0.217   0.222   0.222   0.228   0.245   0.247   0.250   0.253
  0.258   0.271   0.297   0.322   0.324   0.336   0.345   0.356
  0.367   0.372   0.377   0.383   0.399   0.401   0.408   0.415
  0.426   0.430   0.444   0.473   0.478   0.483   0.485   0.487
  0.491   0.493   0.499   0.500   0.505   0.516   0.518   0.525
  0.527   0.529   0.530   0.532   0.535   0.538   0.547   0.549
  0.549   0.557   0.558   0.559   0.563   0.572   0.578   0.585
  0.590   0.595   0.601   0.606   0.607   0.609   0.614   0.615
  0.619   0.625   0.633   0.636   0.638   0.641   0.655   0.657
  0.664   0.665   0.670   0.679   0.683   0.691   0.692   0.694
  0.697   0.704   0.705   0.712   0.714   0.721   0.722   0.724
  0.728   0.729   0.732   0.745   0.755   0.767   0.777   0.783
  0.791   0.792   0.794   0.795   0.803   0.808   0.811   0.820
  0.830   0.833   0.841   0.849   0.854   0.861   0.865   0.872
  0.877   0.880   0.881   0.882   0.884   0.888   0.891   0.894
  0.900   0.904   0.910   0.916   0.923   0.924   0.925   0.929
  0.931   0.936   0.941   0.949   0.950   0.956   0.960   0.962
  0.965   0.972   0.976   0.986   0.992   0.996   1.010   1.024
  1.030   1.047   1.051   1.055   1.062   1.065   1.075   1.082
  1.086   1.099   1.112   1.131   1.134   1.144   1.151   1.168
  1.172   1.178   1.184   1.187   1.197   1.209   1.241   1.251
  1.256   1.272   1.281   1.287   1.289   1.306   1.332   1.340
  1.348   1.379   1.409   1.437   1.445   1.470   1.497   1.519
  1.523   1.533   1.546   1.572   1.587   1.599   1.640   1.729
  1.798
 --------------------------------------------------------------
 
          Ground-State Mulliken Net Atomic Charges

     Atom                 Charge (a.u.)
  ----------------------------------------
      1 C                    -0.147457
      2 C                    -0.079640
      3 C                    -0.157085
      4 C                     0.149737
      5 C                    -0.120302
      6 C                    -0.161310
      7 H                     0.094980
      8 H                     0.085909
      9 H                     0.096850
     10 C                     0.096903
     11 H                     0.096587
     12 C                     0.090913
     13 C                    -0.274045
     14 C                    -0.217256
     15 H                     0.109959
     16 H                     0.122079
     17 C                    -0.207204
     18 H                     0.114719
     19 H                     0.101040
     20 C                     0.010336
     21 H                     0.097556
     22 H                     0.105577
     23 C                    -0.440560
     24 H                     0.142235
     25 H                     0.129967
     26 H                     0.116853
     27 C                    -0.369190
     28 H                     0.122212
     29 H                     0.113536
     30 H                     0.117209
     31 C                    -0.360829
     32 H                     0.119266
     33 H                     0.112197
     34 H                     0.109595
     35 C                     0.155015
     36 C                    -0.160796
     37 C                    -0.085604
     38 C                    -0.083276
     39 H                     0.094666
     40 H                     0.087751
     41 H                     0.087771
     42 C                    -0.162457
     43 C                     0.156298
     44 C                    -0.147631
     45 C                    -0.077657
     46 H                     0.095386
     47 H                     0.088738
     48 C                    -0.156345
     49 C                     0.154161
     50 H                     0.087776
     51 C                    -0.078692
     52 C                    -0.283226
     53 H                     0.104810
     54 H                     0.091048
     55 H                     0.104597
     56 H                     0.094553
     57 H                     0.088170
     58 C                    -0.452475
     59 H                     0.128323
     60 H                     0.139718
     61 H                     0.138972
     62 C                    -0.451892
     63 H                     0.129865
     64 H                     0.140131
     65 H                     0.140113
     66 C                    -0.451662
     67 H                     0.129684
     68 H                     0.140176
     69 H                     0.139905
     70 C                    -0.454282
     71 H                     0.127751
     72 H                     0.139675
     73 H                     0.139602
  ----------------------------------------
  Sum of atomic charges =    -0.000000

 -----------------------------------------------------------------
                    Cartesian Multipole Moments
 -----------------------------------------------------------------
    Charge (ESU x 10^10)
                -0.0000
    Dipole Moment (Debye)
         X      -1.7872      Y       0.3284      Z      -0.0600
       Tot       1.8181
    Quadrupole Moments (Debye-Ang)
        XX    -186.4910     XY       4.3540     YY    -178.2290
        XZ       0.4055     YZ       2.2872     ZZ    -200.3399
    Octopole Moments (Debye-Ang^2)
       XXX    -203.9841    XXY      81.8292    XYY      24.5338
       YYY      -7.0987    XXZ       9.3004    XYZ       9.0268
       YYZ      -4.3017    XZZ     -40.5869    YZZ       3.1032
       ZZZ      -3.4979
    Hexadecapole Moments (Debye-Ang^3)
      XXXX  -73396.9474   XXXY     522.0866   XXYY  -12096.0210
      XYYY     -42.1460   YYYY   -2449.4544   XXXZ     -47.4553
      XXYZ      87.5262   XYYZ      -0.1142   YYYZ      32.0028
      XXZZ  -13068.6472   XYZZ       4.1379   YYZZ    -522.2292
      XZZZ     -38.7309   YZZZ      31.3599   ZZZZ    -676.9292
 -----------------------------------------------------------------
Archival summary:
1\1\cub-0-23.local\OPT\ProcedureUnspecified\6-31G\3142\c295_lal\WedOct3100:35:012018WedOct3100:35:012018\0\\#,OPT,ProcedureUnspecified,6-31G,\\0,1\C\C,1,1.37857\C,1,1.47674,2,124.024\H,3,1.09583,1,114.598,2,-144.575,0\C,3,1.376,1,128.349,2,39.9886,0\H,5,1.09515,3,118.884,1,0.571474,0\C,5,1.45824,3,125.831,1,177.989,0\C,7,1.39197,5,118.58,3,-178.546,0\H,8,1.09875,7,116.478,5,-1.10983,0\C,8,1.43546,7,128.112,5,178.761,0\H,10,1.09385,8,118.124,7,-1.54655,0\C,10,1.38656,8,123.49,7,178.521,0\H,12,1.09838,10,117.531,8,-0.64319,0\C,12,1.44506,10,126.514,8,179.658,0\C,14,1.3981,12,118.738,10,178.358,0\H,15,1.09857,14,116.335,12,0.365388,0\C,15,1.42916,14,128.036,12,-179.181,0\H,17,1.09605,15,118.637,14,-0.733135,0\C,17,1.39123,15,124.092,14,178.837,0\H,19,1.096,17,117.606,15,0.075559,0\C,19,1.42978,17,123.539,15,-179.972,0\H,21,1.09868,19,115.397,17,-1.11229,0\C,21,1.39708,19,128.405,17,178.898,0\C,23,1.4462,21,118.453,19,179.118,0\H,24,1.09852,23,115.742,21,-0.414973,0\C,24,1.38466,23,126.906,21,179.716,0\H,26,1.09391,24,118.76,23,-0.246936,0\C,26,1.43878,24,123.006,23,179.599,0\H,28,1.09887,26,115.241,24,-0.0235289,0\C,28,1.38745,26,128.33,24,-179.993,0\C,30,1.4655,28,118.417,26,179.769,0\H,31,1.09814,30,115.107,28,-0.271478,0\C,31,1.36157,30,126.68,28,179.795,0\H,33,1.0923,31,121.191,30,179.92,0\H,33,1.09284,31,122.678,30,-0.145688,0\C,30,1.52194,28,123.445,26,-0.274684,0\H,36,1.0988,30,112.634,28,-0.118641,0\H,36,1.1057,30,110.884,28,-120.854,0\H,36,1.10575,30,110.948,28,120.727,0\C,7,1.5243,5,118.697,3,1.25993,0\H,40,1.09835,7,112.497,5,178.235,0\H,40,1.1052,7,110.934,5,57.6164,0\H,40,1.10595,7,111.116,5,-61.0801,0\C,23,1.5251,21,122.71,19,-0.953972,0\H,44,1.09842,23,112.433,21,-0.318851,0\H,44,1.10528,23,111.121,21,120.466,0\H,44,1.10548,23,110.908,21,-120.754,0\C,2,1.52561,1,124.024,3,1.6662,0\H,48,1.09993,2,112.543,1,20.5161,0\H,48,1.10539,2,110.01,1,141.531,0\H,48,1.10869,2,111.985,1,-100.514,0\C,14,1.52583,12,118.708,10,-1.37181,0\H,52,1.09823,14,112.493,12,-178.387,0\H,52,1.10518,14,110.907,12,-57.8744,0\H,52,1.10539,14,111.081,12,60.9285,0\C,2,1.53268,1,122.729,3,-178.965,0\H,56,1.10696,2,108.97,1,-142.16,0\H,56,1.1123,2,108.579,1,103.76,0\C,56,1.5462,2,114.153,1,-18.542,0\H,59,1.10513,56,110.299,2,167.535,0\H,59,1.10566,56,109.531,2,-75.3339,0\C,59,1.54296,56,109.555,2,45.4074,0\H,62,1.10593,59,111.039,56,177.072,0\H,62,1.10786,59,108.745,56,60.0045,0\C,62,1.56514,59,112.764,56,-60.6611,0\C,65,1.56566,62,107.151,59,166.835,0\H,66,1.10227,65,112.354,62,175.245,0\H,66,1.10352,65,110.724,62,-64.2804,0\H,66,1.10513,65,109.888,62,55.1425,0\C,65,1.56803,62,109.598,59,-75.3914,0\H,70,1.10228,65,111.426,62,60.4982,0\H,70,1.10348,65,111.754,62,-179.197,0\H,70,1.10504,65,110.095,62,-59.7897,0\\\@

 Total job time:  850.02s(wall), 3340.14s(cpu) 
 Wed Oct 31 00:35:01 2018

        *************************************************************
        *                                                           *
        *  Thank you very much for using Q-Chem.  Have a nice day.  *
        *                                                           *
        *************************************************************


