
Running Job 1 of 1 car_1_sys_2_opt_vdz_gga.in
qchem car_1_sys_2_opt_vdz_gga.in_10357.0 /scr/c295_lal/137181/qchem10357/ 1
/usr/software/qchem_511/exe/qcprog.exe_s car_1_sys_2_opt_vdz_gga.in_10357.0 /scr/c295_lal/137181/qchem10357/
Check license passed

                  Welcome to Q-Chem
     A Quantum Leap Into The Future Of Chemistry


 Q-Chem 5.1, Q-Chem, Inc., Pleasanton, CA (2018)

 Yihan Shao,  Zhengting Gan,  E. Epifanovsky,  A. T. B. Gilbert,  M. Wormit,  
 J. Kussmann,  A. W. Lange,  A. Behn,  Jia Deng,  Xintian Feng,  D. Ghosh,  
 M. Goldey,  P. R. Horn,  L. D. Jacobson,  I. Kaliman,  T. Kus,  A. Landau,  
 Jie Liu,  E. I. Proynov,  R. M. Richard,  R. P. Steele,  E. J. Sundstrom,  
 H. L. Woodcock III,  P. M. Zimmerman,  D. Zuev,  B. Albrecht,  E. Alguire,  
 S. A. Baeppler,  D. Barton,  Z. Benda,  Y. A. Bernard,  E. J. Berquist,  
 K. B. Bravaya,  H. Burton,  D. Casanova,  Chun-Min Chang,  Yunqing Chen,  
 A. Chien,  K. D. Closser,  M. P. Coons,  S. Coriani,  S. Dasgupta,  
 A. L. Dempwolff,  M. Diedenhofen,  Hainam Do,  R. G. Edgar,  Po-Tung Fang,  
 S. Faraji,  S. Fatehi,  Qingguo Feng,  K. D. Fenk,  J. Fosso-Tande,  
 Qinghui Ge,  A. Ghysels,  G. Gidofalvi,  J. Gomes,  J. Gonthier,  A. Gunina,  
 D. Hait,  M. W. D. Hanson-Heine,  P. H. P. Harbach,  A. W. Hauser,  
 J. E. Herr,  E. G. Hohenstein,  Z. C. Holden,  Kerwin Hui,  B. C. Huynh,  
 T.-C. Jagau,  Hyunjun Ji,  B. Kaduk,  K. Khistyaev,  Jaehoon Kim,  
 P. Klunzinger,  K. Koh,  D. Kosenkov,  L. Koulias,  T. Kowalczyk,  
 C. M. Krauter,  A. Kunitsa,  Ka Un Lao,  A. Laurent,  K. V. Lawler,  
 Joonho Lee,  D. Lefrancois,  S. Lehtola,  D. S. Levine,  Yi-Pei Li,  
 You-Sheng Lin,  Fenglai Liu,  E. Livshits,  A. Luenser,  P. Manohar,  
 E. Mansoor,  S. F. Manzer,  Shan-Ping Mao,  Yuezhi Mao,  N. Mardirossian,  
 A. V. Marenich,  T. Markovich,  L. A. Martinez-Martinez,  S. A. Maurer,  
 N. J. Mayhall,  S. C. McKenzie,  J.-M. Mewes,  A. F. Morrison,  
 J. W. Mullinax,  K. Nanda,  T. S. Nguyen-Beck,  R. Olivares-Amaya,  
 J. A. Parkhill,  T. M. Perrine,  F. Plasser,  P. Pokhilko,  S. Prager,  
 A. Prociuk,  E. Ramos,  D. R. Rehn,  F. Rob,  M. Schneider,  N. Sergueev,  
 S. M. Sharada,  S. Sharma,  D. W. Small,  T. Stauch,  T. Stein,  
 Yu-Chuan Su,  A. J. W. Thom,  A. Tkatchenko,  T. Tsuchimochi,  N. M. Tubman,  
 L. Vogt,  M. L. Vidal,  O. Vydrov,  M. A. Watson,  J. Wenzel,  
 M. de Wergifosse,  T. A. Wesolowski,  A. White,  J. Witte,  A. Yamada,  
 Jun Yang,  K. Yao,  S. Yeganeh,  S. R. Yost,  Zhi-Qiang You,  A. Zech,  
 Igor Ying Zhang,  Xing Zhang,  Yan Zhao,  Ying Zhu,  B. R. Brooks,  
 G. K. L. Chan,  C. J. Cramer,  M. S. Gordon,  W. J. Hehre,  A. Klamt,  
 M. W. Schmidt,  C. D. Sherrill,  D. G. Truhlar,  A. Aspuru-Guzik,  R. Baer,  
 A. T. Bell,  N. A. Besley,  Jeng-Da Chai,  A. E. DePrince, III,  
 R. A. DiStasio Jr.,  A. Dreuw,  B. D. Dunietz,  T. R. Furlani,  
 Chao-Ping Hsu,  Yousung Jung,  Jing Kong,  D. S. Lambrecht,  WanZhen Liang,  
 C. Ochsenfeld,  V. A. Rassolov,  L. V. Slipchenko,  J. E. Subotnik,  
 T. Van Voorhis,  J. M. Herbert,  A. I. Krylov,  P. M. W. Gill,  M. Head-Gordon

 Contributors to earlier versions of Q-Chem not listed above: 
 R. D. Adamson,  B. Austin,  J. Baker,  G. J. O. Beran,  K. Brandhorst,  
 S. T. Brown,  E. F. C. Byrd,  A. K. Chakraborty,  C.-L. Cheng,  
 Siu Hung Chien,  D. M. Chipman,  D. L. Crittenden,  H. Dachsel,  
 R. J. Doerksen,  A. D. Dutoi,  L. Fusti-Molnar,  W. A. Goddard III,  
 A. Golubeva-Zadorozhnaya,  S. R. Gwaltney,  G. Hawkins,  A. Heyden,  
 S. Hirata,  G. Kedziora,  F. J. Keil,  C. Kelley,  Jihan Kim,  R. A. King,  
 R. Z. Khaliullin,  P. P. Korambath,  W. Kurlancheek,  A. M. Lee,  M. S. Lee,  
 S. V. Levchenko,  Ching Yeh Lin,  D. Liotard,  R. C. Lochan,  I. Lotan,  
 P. E. Maslen,  N. Nair,  D. P. O'Neill,  D. Neuhauser,  E. Neuscamman,  
 C. M. Oana,  R. Olson,  B. Peters,  R. Peverati,  P. A. Pieniazek,  
 Y. M. Rhee,  J. Ritchie,  M. A. Rohrdanz,  E. Rosta,  N. J. Russ,  
 H. F. Schaefer III,  N. E. Schultz,  N. Shenvi,  A. C. Simmonett,  A. Sodt,  
 D. Stuck,  K. S. Thanthiriwatte,  V. Vanovschi,  Tao Wang,  A. Warshel,  
 C. F. Williams,  Q. Wu,  X. Xu,  W. Zhang

 Please cite Q-Chem as follows:
 Y. Shao et al., Mol. Phys. 113, 184-215 (2015)
 DOI: 10.1080/00268976.2014.952696

 Q-Chem 5.1.1 for Intel X86 EM64T Linux

 Parts of Q-Chem use Armadillo 8.300.2 (Tropical Shenanigans).
 http://arma.sourceforge.net/

 Q-Chem begins on Wed Oct 31 22:21:06 2018  

Host: cub-0-6.local
0

     Scratch files written to /scr/c295_lal/137181/qchem10357//
 Aug318 |scratch|qcdevops|jenkins|workspace|build_RNUM -1
Processing $rem in /usr/software/qchem_511/config/preferences.
 MEM_TOTAL  2000 
Input Ideriv = 2
Curr. Ideriv = -1
Max.  Ideriv = 2

Checking the input file for inconsistencies... 	...done.

--------------------------------------------------------------
User input:
--------------------------------------------------------------
$molecule
2 5
C          6.11198       -0.70536       -0.88427
C          5.12327        0.01013       -0.27934
C          3.71285       -0.33353       -0.35043
C          2.64218        0.33239        0.21524
C          1.29337       -0.19596       -0.01211
C          0.11986        0.37585        0.40516
H          7.16213       -0.41422       -0.81068
H          5.89421       -1.60247       -1.47271
H          5.40611        0.90145        0.29217
H          3.48343       -1.23391       -0.93630
H          1.24870       -1.11564       -0.60638
C         -1.25696       -0.11230        0.15427
H          0.18170        1.34105        0.92276
C         -1.64248       -1.42380        0.30938
C         -3.06739       -1.90945        0.01869
C         -4.12190       -0.78047       -0.05558
H         -3.35846       -2.65158        0.78721
H         -3.05986       -2.47126       -0.94118
C         -3.56496        0.39986       -0.87954
H         -4.37804       -0.44297        0.96572
H         -5.05702       -1.16249       -0.50416
C         -2.26916        1.01440       -0.25567
H         -4.32246        1.19877       -0.98643
H         -3.33324        0.04247       -1.90225
C         -0.71751       -2.53672        0.79192
H          0.19957       -2.15383        1.26117
H         -0.41500       -3.20548       -0.03860
H         -1.24359       -3.17471        1.52671
C         -2.63988        1.87149        1.00446
H         -3.13263        1.26007        1.77757
H         -3.32420        2.69166        0.72123
H         -1.74401        2.32694        1.45982
C         -1.63330        1.95677       -1.33165
H         -1.28815        1.37681       -2.20449
H         -0.76979        2.51451       -0.93484
H         -2.38138        2.69188       -1.68000
C          2.79279        1.59598        1.05477
H          3.84353        1.87288        1.21637
H          2.32264        1.46616        2.04613
H          2.29118        2.45551        0.57232
Fe         0.23756        1.46656       -2.64868
O          2.20556        1.50366       -2.64868
O          3.44096        1.53326       -2.64868
$end

$rem
BASIS = VDZ
METHOD  = BLYP
JOBTYPE = OPT
GEOM_OPT_MAX_CYCLES = 100
$end
--------------------------------------------------------------
 ----------------------------------------------------------------
             Standard Nuclear Orientation (Angstroms)
    I     Atom           X                Y                Z
 ----------------------------------------------------------------
    1      C      -5.6773361744    -1.4720428373     0.6664257131
    2      C      -4.6812477825    -1.2125183892    -0.2256890135
    3      C      -3.2673776316    -1.2218166673     0.1109492174
    4      C      -2.1910774057    -0.9611775563    -0.7157377376
    5      C      -0.8427385711    -1.0105551623    -0.1415649411
    6      C       0.3247083463    -0.7059752583    -0.7915691152
    7      H      -6.7302927440    -1.4529937961     0.3767489851
    8      H      -5.4633641323    -1.7085252242     1.7137001779
    9      H      -4.9612123525    -0.9780413067    -1.2589914017
   10      H      -3.0413123725    -1.4607927098     1.1589693925
   11      H      -0.7990302168    -1.2837135818     0.9188300805
   12      C       1.6948091799    -0.7063178513    -0.2261550056
   13      H       0.2512208640    -0.3507966157    -1.8268433337
   14      C       2.1967050728    -1.7182099777     0.5592696373
   15      C       3.6093979312    -1.6835742606     1.1541010096
   16      C       4.5565367166    -0.6597334339     0.4856840020
   17      H       4.0477789939    -2.6989376696     1.0996871895
   18      H       3.5295609262    -1.4582060742     2.2403205211
   19      C       3.8143838701     0.6771287823     0.2752565284
   20      H       4.9072123690    -1.0560634262    -0.4851490237
   21      H       5.4574094782    -0.5119325107     1.1087376640
   22      C       2.5597142527     0.5332947899    -0.6472871088
   23      H       4.4892252456     1.4393493989    -0.1572914571
   24      H       3.4892465724     1.0631903500     1.2614612324
   25      C       1.4258271894    -2.9839190112     0.9208401148
   26      H       0.5452365962    -3.1423318672     0.2826382539
   27      H       1.0779721628    -2.9639567424     1.9730350095
   28      H       2.0846424931    -3.8678642992     0.8296761193
   29      C       3.0123621954     0.3751467070    -2.1406267310
   30      H       3.6407612454    -0.5194197070    -2.2791966268
   31      H       3.5918371091     1.2601323130    -2.4603159954
   32      H       2.1454616846     0.2821464189    -2.8167960439
   33      C       1.7274625622     1.8523037806    -0.5143039403
   34      H       1.3254164417     1.9596547203     0.5075407066
   35      H       0.8775893481     1.8777831745    -1.2151947480
   36      H       2.3687648470     2.7270484953    -0.7262265312
   37      C      -2.3366607252    -0.6135682604    -2.1929401461
   38      H      -3.3784688705    -0.6635978726    -2.5378684631
   39      H      -1.7415911726    -1.3031490449    -2.8182876286
   40      H      -1.9651145976     0.4074981840    -2.3991904956
   41      Fe     -0.2451035733     2.1094944965     0.7176971885
   42      O      -2.1956124126     1.8638903093     0.6197468906
   43      O      -3.4205214836     1.7143434556     0.5539986862
 ----------------------------------------------------------------
 Molecular Point Group                 C1    NOp =  1
 Largest Abelian Subgroup              C1    NOp =  1
 Nuclear Repulsion Energy =  1787.5829722748 hartrees
 There are       82 alpha and       78 beta electrons
 Requested basis set is VDZ
 There are 147 shells and 231 basis functions

 Total QAlloc Memory Limit   2000 MB
 Mega-Array Size       188 MB
 MEM_STATIC part       192 MB
 A cutoff of  1.0D-11 yielded   8398 shell pairs
 There are     21188 function pairs (     21570 Cartesian)
 
 -------------------------------------------------------
 OpenMP Integral Computing Module                       
 Release: version 1.0, May 2013, Q-Chem Inc. Pittsburgh 
 -------------------------------------------------------
 Integral Job Info:
 Integral job number is                      11
 Integral operator is                         1
 short-range coefficients                     0
 long-range coefficients              100000000
 Omega coefficients                           0
 if combine SR and LR in K                    0
 Integral screening is                        0
 Integral computing path is                   2
 max size of driver memory is            800000
 size of driver memory is                593474
 size of scratch memory is             29634545
 max col of scratch BK array               1296
 max len of scratch array in speh3          155
 max len of scratch index in speh4           18
 max int batch size is                      520
 min int batch size is                       52
 fixed nKL is                                45
 max L of basis functions is                  2
 order of int derivative is                   0
 number of shells is                        147
 number of basis is                         233
 number of cartesian basis is               233
 number of contracted shell pairs          8398
 number of primitive shell pairs          23613
 maxK2 (contraction) of shell pair           36
 max number of K2 of shell pair               1
 max number of CS2 of shell pair           2015
 max number of PS2 of shell pair           4815
 mem total for path MDJ                  586130
 -------------------------------------------------------
 Smallest overlap matrix eigenvalue = 1.01E-03

 Scale SEOQF with 1.000000e-02/1.000000e-01/1.000000e-01

 Standard Electronic Orientation quadrupole field applied
 Nucleus-field energy     =     0.0000000157 hartrees
 Guess from superposition of atomic densities
 Warning:  Energy on first SCF cycle will be non-variational
 SAD guess density has 162.000000 electrons

 -----------------------------------------------------------------------
  General SCF calculation program by
  Eric Jon Sundstrom, Paul Horn, Yuezhi Mao, Dmitri Zuev, Alec White,
  David Stuck, Shaama M.S., Shane Yost, Joonho Lee, David Small,
  Daniel Levine, Susi Lehtola, Hugh Burton, Evgeny Epifanovsky
 -----------------------------------------------------------------------
 Exchange:  B88      Correlation:  LYP
 Using SG-1 standard quadrature grid
 using 8 threads for integral computing
 -------------------------------------------------------
 OpenMP Integral computing Module                
 Release: version 1.0, May 2013, Q-Chem Inc. Pittsburgh 
 -------------------------------------------------------
 -------------------------------------------------------
 OpenMP BLAS3 based DFT computing Module                
 Release: version 1.0, May 2013, Q-Chem Inc. Pittsburgh 
 -------------------------------------------------------
 A unrestricted SCF calculation will be
 performed using DIIS
 SCF converges when DIIS error is below 1.0e-08
 ---------------------------------------
  Cycle       Energy         DIIS error
 ---------------------------------------
    1   -2039.4890108377      2.99e-02  
    2   -2035.3670842391      4.84e-03  
    3   -2014.3627873954      2.15e-02  
    4   -2035.5725788968      4.11e-03  
    5   -2034.1264783109      7.22e-03  
    6   -2035.4366695757      5.16e-03  
    7   -2036.1966208541      1.41e-03  
    8   -2035.9543306046      2.50e-03  
    9   -2036.0518681512      2.38e-03  
   10   -2036.2251910864      1.01e-03  
   11   -2036.2553995512      6.40e-04  
   12   -2036.2636905233      3.70e-04  
   13   -2036.2664144226      2.22e-04  
   14   -2036.2673209713      1.42e-04  
   15   -2036.2680854779      8.32e-05  
   16   -2036.2681282481      7.98e-05  
   17   -2036.2682356468      5.06e-05  
   18   -2036.2682863907      2.82e-05  
   19   -2036.2683129310      5.23e-06  
   20   -2036.2683148402      3.38e-06  
   21   -2036.2683153728      1.41e-06  
   22   -2036.2683155538      1.20e-06  
   23   -2036.2683156630      8.64e-07  
   24   -2036.2683157272      5.75e-07  
   25   -2036.2683157794      2.39e-07  
   26   -2036.2683158058      2.11e-07  
   27   -2036.2683158184      1.16e-07  
   28   -2036.2683158238      4.69e-08  
   29   -2036.2683158279      5.05e-08  
   30   -2036.2683158315      4.34e-08  
   31   -2036.2683158330      4.37e-08  
   32   -2036.2683158357      4.09e-08  
   33   -2036.2683158376      2.64e-08  
   34   -2036.2683158386      1.45e-08  
   35   -2036.2683158389      8.42e-09  Convergence criterion met
 ---------------------------------------
 SCF time:   CPU 762.79s  wall 96.00s 
<S^2> =          6.888670508
 SCF   energy in the final basis set =    -2036.2683158389
 Total energy in the final basis set =    -2036.2683158389
 
 --------------------------------------------------------------
 
                    Orbital Energies (a.u.)
 --------------------------------------------------------------
 
 Alpha MOs
 -- Occupied --
******* -29.839 -25.798 -25.797 -25.786 -19.159 -19.150 -10.228
-10.221 -10.221 -10.215 -10.210 -10.209 -10.209 -10.205 -10.189
-10.185 -10.163 -10.153 -10.151 -10.150 -10.145 -10.136  -3.607
 -2.433  -2.432  -2.415  -1.414  -1.030  -1.009  -0.975  -0.972
 -0.960  -0.931  -0.907  -0.889  -0.868  -0.855  -0.834  -0.812
 -0.770  -0.766  -0.737  -0.734  -0.728  -0.712  -0.710  -0.709
 -0.703  -0.683  -0.670  -0.660  -0.647  -0.641  -0.626  -0.621
 -0.616  -0.611  -0.608  -0.596  -0.590  -0.582  -0.580  -0.576
 -0.568  -0.560  -0.552  -0.549  -0.547  -0.545  -0.544  -0.541
 -0.527  -0.523  -0.519  -0.514  -0.511  -0.505  -0.497  -0.471
 -0.467  -0.466
 -- Virtual --
 -0.434  -0.361  -0.342  -0.277  -0.243  -0.219  -0.206  -0.205
 -0.199  -0.172  -0.167  -0.165  -0.159  -0.154  -0.147  -0.142
 -0.139  -0.131  -0.121  -0.113  -0.107  -0.103  -0.102  -0.097
 -0.095  -0.091  -0.086  -0.082  -0.077  -0.066  -0.065  -0.064
 -0.060  -0.052  -0.043  -0.036  -0.032  -0.023  -0.011  -0.008
 -0.000   0.022   0.039   0.058   0.072   0.075   0.092   0.102
  0.114   0.121   0.142   0.154   0.159   0.166   0.170   0.179
  0.180   0.189   0.199   0.210   0.219   0.229   0.230   0.233
  0.248   0.262   0.268   0.285   0.298   0.308   0.311   0.315
  0.322   0.330   0.333   0.338   0.340   0.346   0.353   0.361
  0.367   0.375   0.382   0.389   0.394   0.396   0.400   0.411
  0.414   0.418   0.421   0.423   0.427   0.436   0.438   0.442
  0.445   0.452   0.453   0.456   0.460   0.465   0.471   0.473
  0.483   0.484   0.496   0.502   0.508   0.509   0.524   0.535
  0.543   0.555   0.558   0.574   0.584   0.599   0.602   0.617
  0.631   0.634   0.656   0.661   0.686   0.697   0.719   0.741
  0.759   0.764   0.784   0.801   0.808   0.825   0.833   0.845
  0.858   0.861   0.876   0.899   0.927   0.940   0.970   1.000
  1.008   1.017   1.044   1.145   1.195
 
 Beta MOs
 -- Occupied --
******* -29.788 -25.757 -25.756 -25.752 -19.141 -19.127 -10.227
-10.223 -10.222 -10.215 -10.212 -10.211 -10.209 -10.206 -10.189
-10.188 -10.163 -10.153 -10.151 -10.150 -10.145 -10.136  -3.484
 -2.309  -2.308  -2.304  -1.375  -1.033  -1.012  -0.974  -0.964
 -0.934  -0.927  -0.908  -0.891  -0.870  -0.857  -0.834  -0.815
 -0.770  -0.769  -0.739  -0.729  -0.710  -0.709  -0.696  -0.684
 -0.670  -0.661  -0.660  -0.655  -0.648  -0.642  -0.627  -0.622
 -0.617  -0.613  -0.610  -0.597  -0.591  -0.583  -0.579  -0.577
 -0.568  -0.560  -0.553  -0.550  -0.547  -0.545  -0.533  -0.513
 -0.507  -0.498  -0.479  -0.457  -0.454  -0.450
 -- Virtual --
 -0.422  -0.416  -0.411  -0.395  -0.392  -0.353  -0.327  -0.287
 -0.251  -0.217  -0.215  -0.198  -0.196  -0.169  -0.167  -0.162
 -0.158  -0.152  -0.144  -0.143  -0.137  -0.132  -0.121  -0.113
 -0.107  -0.102  -0.100  -0.096  -0.095  -0.091  -0.086  -0.079
 -0.072  -0.067  -0.065  -0.062  -0.060  -0.046  -0.043  -0.034
 -0.033  -0.023  -0.012  -0.009  -0.001   0.020   0.038   0.058
  0.071   0.074   0.091   0.100   0.113   0.121   0.141   0.153
  0.158   0.165   0.169   0.179   0.181   0.189   0.196   0.206
  0.218   0.222   0.227   0.231   0.247   0.261   0.265   0.285
  0.296   0.307   0.311   0.314   0.321   0.330   0.332   0.338
  0.341   0.346   0.352   0.360   0.366   0.373   0.381   0.387
  0.393   0.395   0.399   0.410   0.413   0.417   0.421   0.424
  0.426   0.435   0.438   0.441   0.445   0.451   0.453   0.455
  0.459   0.465   0.471   0.474   0.483   0.483   0.495   0.503
  0.507   0.514   0.530   0.540   0.558   0.563   0.574   0.584
  0.588   0.601   0.613   0.635   0.651   0.651   0.679   0.691
  0.708   0.717   0.740   0.749   0.763   0.773   0.791   0.810
  0.811   0.834   0.840   0.850   0.870   0.874   0.883   0.908
  0.930   0.961   0.975   1.008   1.017   1.019   1.048   1.144
  1.234
 --------------------------------------------------------------
 
          Ground-State Mulliken Net Atomic Charges

     Atom                 Charge (a.u.)    Spin (a.u.)
  --------------------------------------------------------
      1 C                    -0.042121      -0.277822
      2 C                     0.010393       0.002910
      3 C                    -0.055915      -0.141553
      4 C                     0.021349      -0.129687
      5 C                    -0.137317       0.001664
      6 C                    -0.105867      -0.109468
      7 H                     0.155396       0.014275
      8 H                     0.134764       0.013381
      9 H                     0.105416       0.000788
     10 H                     0.078341       0.007308
     11 H                     0.074901       0.000631
     12 C                     0.049527      -0.074113
     13 H                     0.111162       0.002652
     14 C                    -0.096061      -0.163877
     15 C                    -0.095551       0.010007
     16 C                    -0.064137      -0.003039
     17 H                     0.118943      -0.005009
     18 H                     0.121499      -0.017609
     19 C                    -0.062232       0.000232
     20 H                     0.098438      -0.000720
     21 H                     0.110393       0.000146
     22 C                    -0.169762       0.002373
     23 H                     0.100852      -0.002471
     24 H                     0.066120       0.000263
     25 C                    -0.160636       0.011439
     26 H                     0.109149      -0.000064
     27 H                     0.132890      -0.013005
     28 H                     0.140179      -0.009727
     29 C                    -0.129731      -0.003804
     30 H                     0.124730       0.000443
     31 H                     0.118539       0.000079
     32 H                     0.094188      -0.000030
     33 C                    -0.227171       0.035612
     34 H                    -0.079772      -0.021418
     35 H                     0.097460      -0.001208
     36 H                     0.177851      -0.001681
     37 C                    -0.128490       0.011937
     38 H                     0.126900      -0.000536
     39 H                     0.138899      -0.006832
     40 H                     0.100527      -0.010822
     41 Fe                    1.052843       3.255591
     42 O                    -0.258619       0.696234
     43 O                     0.041733       0.926531
  --------------------------------------------------------
  Sum of atomic charges =     2.000000
  Sum of spin   charges =     4.000000

 -----------------------------------------------------------------
                    Cartesian Multipole Moments
 -----------------------------------------------------------------
    Charge (ESU x 10^10)
                 9.6064
    Dipole Moment (Debye)
         X      -2.7612      Y       0.7358      Z       1.5865
       Tot       3.2684
    Quadrupole Moments (Debye-Ang)
        XX     -21.8605     XY      11.2377     YY     -81.8463
        XZ      -0.0976     YZ      -1.4779     ZZ    -100.2675
    Octopole Moments (Debye-Ang^2)
       XXX    -239.1896    XXY     -89.3146    XYY       5.5841
       YYY      91.2759    XXZ      27.8258    XYZ      -8.9941
       YYZ      35.1387    XZZ     -16.6614    YZZ      18.9117
       ZZZ      17.8700
    Hexadecapole Moments (Debye-Ang^3)
      XXXX   -3699.6341   XXXY     402.6490   XXYY   -1149.6091
      XYYY    -108.5454   YYYY   -1523.4543   XXXZ     -95.5422
      XXYZ     -84.7679   XYYZ     -11.2453   YYYZ      30.6095
      XXZZ   -1043.7626   XYZZ      -2.0981   YYZZ    -396.2410
      XZZZ     -10.9162   YZZZ      48.3576   ZZZZ    -811.6596
 -----------------------------------------------------------------
 Calculating analytic gradient of the SCF energy
 Gradient of SCF Energy
            1           2           3           4           5           6
    1   0.0085891  -0.0271803   0.0340698  -0.0326167   0.0382865  -0.0347108
    2   0.0041458  -0.0042372   0.0061321  -0.0042400   0.0059356  -0.0085325
    3  -0.0146053   0.0173510  -0.0186090   0.0251032  -0.0121341   0.0030298
            7           8           9          10          11          12
    1   0.0074195  -0.0010514   0.0013349  -0.0005689  -0.0002344   0.0202073
    2  -0.0003491   0.0020840  -0.0007815   0.0018934   0.0031517  -0.0240389
    3   0.0029428  -0.0077133   0.0047630  -0.0056752  -0.0056404   0.0175152
           13          14          15          16          17          18
    1   0.0003106  -0.0128943   0.0021424   0.0046222  -0.0003686   0.0026816
    2  -0.0039509   0.0264929  -0.0029062  -0.0024490   0.0038390  -0.0003798
    3   0.0052040  -0.0280093   0.0120083   0.0002610  -0.0015879  -0.0056581
           19          20          21          22          23          24
    1  -0.0007818  -0.0028157  -0.0026877  -0.0010469  -0.0025953   0.0008951
    2   0.0026793   0.0019516  -0.0010065   0.0087145  -0.0027589  -0.0024530
    3  -0.0014628   0.0035787  -0.0019032  -0.0007737   0.0019318  -0.0058422
           25          26          27          28          29          30
    1  -0.0012426   0.0044446  -0.0006672  -0.0021008   0.0046075  -0.0031634
    2  -0.0079090   0.0034640  -0.0007686   0.0037633  -0.0056441   0.0037218
    3   0.0080714   0.0033573  -0.0066422  -0.0003110  -0.0016684  -0.0008673
           31          32          33          34          35          36
    1  -0.0031756   0.0043348  -0.0090418  -0.0318968   0.0064684   0.0000014
    2  -0.0034784   0.0007152   0.0044470  -0.0014152  -0.0010127  -0.0050442
    3   0.0019171   0.0050842   0.0239254  -0.0320484   0.0139971  -0.0021832
           37          38          39          40          41          42
    1   0.0005775   0.0044162  -0.0019183  -0.0014151   0.0534299  -0.1072844
    2   0.0034438  -0.0001421   0.0035734  -0.0060009   0.0095377  -0.0206939
    3  -0.0076542   0.0025414   0.0037044   0.0012500   0.0104409  -0.0113401
           43
    1   0.0826196
    2   0.0105062
    3   0.0043513
 Max gradient component =       1.073E-01
 RMS gradient           =       1.689E-02
 Gradient time:  CPU 43.08 s  wall 5.51 s
 Geometry Optimization Parameters
   NAtoms,    NIC,     NZ,  NCons,   NDum,   NFix, NCnnct, MaxDiis
       43     324       0       0       0       0       0       0


** GEOMETRY OPTIMIZATION IN DELOCALIZED INTERNAL COORDINATES **
   Searching for a Minimum

   Optimization Cycle:   1

                       Coordinates (Angstroms)
     ATOM                X               Y               Z
      1  C        -5.6773361744   -1.4720428373    0.6664257131
      2  C        -4.6812477825   -1.2125183892   -0.2256890135
      3  C        -3.2673776316   -1.2218166673    0.1109492174
      4  C        -2.1910774057   -0.9611775563   -0.7157377376
      5  C        -0.8427385711   -1.0105551623   -0.1415649411
      6  C         0.3247083463   -0.7059752583   -0.7915691152
      7  H        -6.7302927440   -1.4529937961    0.3767489851
      8  H        -5.4633641323   -1.7085252242    1.7137001779
      9  H        -4.9612123525   -0.9780413067   -1.2589914017
     10  H        -3.0413123725   -1.4607927098    1.1589693925
     11  H        -0.7990302168   -1.2837135818    0.9188300805
     12  C         1.6948091799   -0.7063178513   -0.2261550056
     13  H         0.2512208640   -0.3507966157   -1.8268433337
     14  C         2.1967050728   -1.7182099777    0.5592696373
     15  C         3.6093979312   -1.6835742606    1.1541010096
     16  C         4.5565367166   -0.6597334339    0.4856840020
     17  H         4.0477789939   -2.6989376696    1.0996871895
     18  H         3.5295609262   -1.4582060742    2.2403205211
     19  C         3.8143838701    0.6771287823    0.2752565284
     20  H         4.9072123690   -1.0560634262   -0.4851490237
     21  H         5.4574094782   -0.5119325107    1.1087376640
     22  C         2.5597142527    0.5332947899   -0.6472871088
     23  H         4.4892252456    1.4393493989   -0.1572914571
     24  H         3.4892465724    1.0631903500    1.2614612324
     25  C         1.4258271894   -2.9839190112    0.9208401148
     26  H         0.5452365962   -3.1423318672    0.2826382539
     27  H         1.0779721628   -2.9639567424    1.9730350095
     28  H         2.0846424931   -3.8678642992    0.8296761193
     29  C         3.0123621954    0.3751467070   -2.1406267310
     30  H         3.6407612454   -0.5194197070   -2.2791966268
     31  H         3.5918371091    1.2601323130   -2.4603159954
     32  H         2.1454616846    0.2821464189   -2.8167960439
     33  C         1.7274625622    1.8523037806   -0.5143039403
     34  H         1.3254164417    1.9596547203    0.5075407066
     35  H         0.8775893481    1.8777831745   -1.2151947480
     36  H         2.3687648470    2.7270484953   -0.7262265312
     37  C        -2.3366607252   -0.6135682604   -2.1929401461
     38  H        -3.3784688705   -0.6635978726   -2.5378684631
     39  H        -1.7415911726   -1.3031490449   -2.8182876286
     40  H        -1.9651145976    0.4074981840   -2.3991904956
     41  Fe       -0.2451035733    2.1094944965    0.7176971885
     42  O        -2.1956124126    1.8638903093    0.6197468906
     43  O        -3.4205214836    1.7143434556    0.5539986862
   Point Group: c1    Number of degrees of freedom:   123


   Energy is  -2036.268315839


 Attempting to Generate Delocalized Internal Coordinates

123 Hessian modes will be used to form the next step
  Hessian Eigenvalues:
     0.002000    0.002000    0.003068    0.003508    0.005537    0.005812
     0.005936    0.008791    0.009089    0.010324    0.011535    0.013524
     0.013632    0.013915    0.015340    0.019204    0.020143    0.020208
     0.021390    0.024795    0.026312    0.026653    0.027416    0.027416
     0.028447    0.029574    0.040584    0.044181    0.046137    0.047930
     0.051490    0.052380    0.053390    0.054656    0.057457    0.067607
     0.068474    0.069101    0.071692    0.072122    0.077261    0.078586
     0.083051    0.085668    0.096669    0.097659    0.100726    0.113554
     0.121391    0.124978    0.130077    0.136564    0.156901    0.159766
     0.159934    0.159998    0.159999    0.160000    0.160000    0.160000
     0.160000    0.160000    0.160000    0.160000    0.160000    0.160000
     0.160000    0.160000    0.163372    0.170646    0.187046    0.200000
     0.200000    0.220000    0.220001    0.220023    0.220089    0.227252
     0.249755    0.249992    0.249992    0.249994    0.258103    0.260008
     0.261420    0.263916    0.272076    0.276237    0.286575    0.287117
     0.298474    0.299356    0.323659    0.327717    0.328275    0.328881
     0.330043    0.330149    0.330308    0.330598    0.331064    0.331189
     0.331270    0.331516    0.333149    0.334653    0.334730    0.337912
     0.338414    0.338557    0.340193    0.341357    0.341413    0.342687
     0.343207    0.345548    0.361828    0.377999    0.482333    0.487488
     0.508851    0.525182    0.887302

 Minimum Search - Taking Simple RFO Step
 Searching for Lamda that Minimizes Along All modes
 Value Taken    Lamda =  -0.04503472
 Calculated Step too Large.  Step scaled by  0.535523
 Step Taken.  Stepsize is  0.300000

                             Maximum     Tolerance    Cnvgd?
         Gradient           0.051281      0.000300      NO
         Displacement       0.190471      0.001200      NO
         Energy change     *********      0.000001      NO


 New Cartesian Coordinates Obtained by Inverse Iteration

 Displacement from previous Coordinates is:  3.088198
 ----------------------------------------------------------------
             Standard Nuclear Orientation (Angstroms)
    I     Atom           X                Y                Z
 ----------------------------------------------------------------
    1      C      -5.6967149311    -1.8759331973     0.5696303788
    2      C      -4.7020470418    -1.4866785017    -0.2953199453
    3      C      -3.3108517158    -1.3852701644     0.0886675145
    4      C      -2.2280321436    -1.0014664415    -0.7097549950
    5      C      -0.8996392822    -0.9773219865    -0.1000325518
    6      C       0.2783269927    -0.6059095269    -0.7344017716
    7      H      -6.7448318812    -1.9423527172     0.2492191982
    8      H      -5.4858729586    -2.1364870208     1.6179652566
    9      H      -4.9758553054    -1.2383306445    -1.3309384791
   10      H      -3.0944371746    -1.6496825497     1.1372154966
   11      H      -0.8596033174    -1.2987319887     0.9516863827
   12      C       1.6508458109    -0.6238952984    -0.1880727327
   13      H       0.2018621489    -0.2414559389    -1.7710915300
   14      C       2.1263184605    -1.6687733794     0.5996635912
   15      C       3.5507187515    -1.7043512932     1.1526247892
   16      C       4.5373761335    -0.7431718293     0.4470192766
   17      H       3.9291788174    -2.7466806741     1.1027889815
   18      H       3.5039931044    -1.4650119320     2.2423378395
   19      C       3.8726774621     0.6331035069     0.2346614372
   20      H       4.8429317501    -1.1750170093    -0.5279826774
   21      H       5.4629548659    -0.6379214803     1.0466053490
   22      C       2.5835482342     0.5577013962    -0.6556612426
   23      H       4.5860386025     1.3439119378    -0.2305533286
   24      H       3.6004369904     1.0580696143     1.2262850081
   25      C       1.3013740200    -2.8917360026     0.9814923495
   26      H       0.3924281529    -3.0173721662     0.3685437176
   27      H       0.9902256963    -2.8481447379     2.0492359747
   28      H       1.9150398494    -3.8103275925     0.8794337632
   29      C       2.9760118182     0.3496028400    -2.1627297183
   30      H       3.5358348220    -0.5936753215    -2.3002345389
   31      H       3.6132587224     1.1859838501    -2.5147839106
   32      H       2.0840910256     0.3099006159    -2.8193543152
   33      C       1.8814738273     1.9509485428    -0.5353473934
   34      H       1.5416262513     2.1205659022     0.5159497477
   35      H       1.0138010495     2.0527152727    -1.2237670549
   36      H       2.6018637148     2.7559599446    -0.7809194879
   37      C      -2.3687383775    -0.6180040637    -2.1784105362
   38      H      -3.3987332154    -0.7356649728    -2.5528500782
   39      H      -1.7083989139    -1.2406268834    -2.8155039563
   40      H      -2.0737053683     0.4398575254    -2.3444079114
   41      Fe     -0.0289219734     2.4495502590     0.7588272087
   42      O      -1.9618050287     2.4579942373     0.7576126044
   43      O      -3.2228669710     2.4668041312     0.7527411219
 ----------------------------------------------------------------
 Molecular Point Group                 C1    NOp =  1
 Largest Abelian Subgroup              C1    NOp =  1
 Nuclear Repulsion Energy =  1748.7026661066 hartrees
 There are       82 alpha and       78 beta electrons
 Applying Cartesian multipole field
    Component          Value
    ---------          -----
     (2,0,0)        1.00000E-12
     (0,2,0)        2.00000E-11
     (0,0,2)       -3.00000E-11
 Nucleus-field energy     =     0.0000000224 hartrees
 Requested basis set is VDZ
 There are 147 shells and 231 basis functions
 A cutoff of  1.0D-11 yielded   8286 shell pairs
 There are     20826 function pairs (     21190 Cartesian)
 Smallest overlap matrix eigenvalue = 1.05E-03
 Guess MOs from SCF MO coefficient file

 -----------------------------------------------------------------------
  General SCF calculation program by
  Eric Jon Sundstrom, Paul Horn, Yuezhi Mao, Dmitri Zuev, Alec White,
  David Stuck, Shaama M.S., Shane Yost, Joonho Lee, David Small,
  Daniel Levine, Susi Lehtola, Hugh Burton, Evgeny Epifanovsky
 -----------------------------------------------------------------------
 Exchange:  B88      Correlation:  LYP
 Using SG-1 standard quadrature grid
 using 8 threads for integral computing
 -------------------------------------------------------
 OpenMP Integral computing Module                
 Release: version 1.0, May 2013, Q-Chem Inc. Pittsburgh 
 -------------------------------------------------------
 -------------------------------------------------------
 OpenMP BLAS3 based DFT computing Module                
 Release: version 1.0, May 2013, Q-Chem Inc. Pittsburgh 
 -------------------------------------------------------
 A unrestricted SCF calculation will be
 performed using DIIS
 SCF converges when DIIS error is below 1.0e-08
 ---------------------------------------
  Cycle       Energy         DIIS error
 ---------------------------------------
    1   -2036.2358939202      8.69e-04  
    2   -2036.2787356641      3.63e-04  
    3   -2035.8202526591      4.15e-03  
    4   -2036.2740075262      5.85e-04  
    5   -2036.2818834713      1.56e-04  
    6   -2036.2821285418      1.07e-04  
    7   -2036.2825824931      3.78e-05  
    8   -2036.2826543063      8.07e-06  
    9   -2036.2826697493      8.44e-06  
   10   -2036.2826820270      7.52e-06  
   11   -2036.2826887511      4.73e-06  
   12   -2036.2826982852      2.47e-06  
   13   -2036.2826999424      1.07e-06  
   14   -2036.2827003236      5.54e-07  
   15   -2036.2827006417      4.69e-07  
   16   -2036.2827009132      3.72e-07  
   17   -2036.2827011884      3.18e-07  
   18   -2036.2827015157      3.16e-07  
   19   -2036.2827019988      2.05e-07  
   20   -2036.2827021078      2.61e-07  
   21   -2036.2827021602      1.34e-07  
   22   -2036.2827021662      1.30e-07  
   23   -2036.2827021666      6.39e-08  
   24   -2036.2827021675      5.18e-08  
   25   -2036.2827021680      1.60e-08  
   26   -2036.2827021680      9.88e-09  Convergence criterion met
 ---------------------------------------
 SCF time:   CPU 554.16s  wall 69.00s 
<S^2> =          6.924043406
 SCF   energy in the final basis set =    -2036.2827021680
 Total energy in the final basis set =    -2036.2827021680
 
 --------------------------------------------------------------
 
                    Orbital Energies (a.u.)
 --------------------------------------------------------------
 
 Alpha MOs
 -- Occupied --
******* -29.839 -25.797 -25.797 -25.785 -19.151 -19.142 -10.227
-10.218 -10.215 -10.210 -10.209 -10.208 -10.206 -10.204 -10.187
-10.186 -10.160 -10.153 -10.151 -10.149 -10.145 -10.135  -3.606
 -2.433  -2.431  -2.412  -1.383  -1.023  -1.003  -0.974  -0.967
 -0.955  -0.926  -0.902  -0.884  -0.862  -0.852  -0.832  -0.808
 -0.767  -0.761  -0.733  -0.725  -0.723  -0.703  -0.698  -0.692
 -0.692  -0.678  -0.666  -0.656  -0.644  -0.638  -0.622  -0.618
 -0.611  -0.608  -0.604  -0.594  -0.586  -0.580  -0.578  -0.572
 -0.564  -0.558  -0.548  -0.547  -0.545  -0.543  -0.542  -0.539
 -0.523  -0.521  -0.518  -0.513  -0.509  -0.504  -0.495  -0.467
 -0.463  -0.462
 -- Virtual --
 -0.427  -0.358  -0.341  -0.276  -0.240  -0.215  -0.207  -0.204
 -0.194  -0.172  -0.167  -0.164  -0.158  -0.152  -0.147  -0.141
 -0.137  -0.130  -0.122  -0.112  -0.108  -0.106  -0.101  -0.097
 -0.094  -0.090  -0.086  -0.084  -0.076  -0.066  -0.064  -0.062
 -0.059  -0.051  -0.041  -0.035  -0.031  -0.020  -0.012  -0.007
  0.001   0.023   0.041   0.058   0.070   0.076   0.093   0.104
  0.117   0.125   0.144   0.159   0.163   0.171   0.175   0.178
  0.185   0.192   0.200   0.210   0.226   0.229   0.233   0.238
  0.252   0.262   0.270   0.286   0.298   0.307   0.312   0.317
  0.323   0.331   0.338   0.339   0.340   0.348   0.355   0.363
  0.369   0.375   0.383   0.389   0.393   0.398   0.403   0.409
  0.415   0.420   0.421   0.424   0.428   0.435   0.438   0.439
  0.444   0.453   0.453   0.456   0.463   0.463   0.468   0.475
  0.482   0.487   0.498   0.503   0.508   0.511   0.522   0.529
  0.539   0.549   0.568   0.573   0.579   0.592   0.605   0.606
  0.616   0.623   0.632   0.635   0.646   0.661   0.692   0.708
  0.739   0.759   0.783   0.787   0.806   0.822   0.837   0.847
  0.853   0.870   0.871   0.891   0.907   0.917   0.945   0.994
  1.007   1.011   1.036   1.138   1.160
 
 Beta MOs
 -- Occupied --
******* -29.787 -25.756 -25.755 -25.750 -19.132 -19.118 -10.226
-10.219 -10.217 -10.212 -10.210 -10.208 -10.208 -10.204 -10.189
-10.187 -10.160 -10.153 -10.151 -10.149 -10.145 -10.135  -3.482
 -2.307  -2.306  -2.302  -1.343  -1.026  -1.006  -0.970  -0.958
 -0.929  -0.925  -0.903  -0.885  -0.864  -0.854  -0.832  -0.811
 -0.768  -0.764  -0.735  -0.724  -0.705  -0.702  -0.687  -0.678
 -0.665  -0.657  -0.645  -0.639  -0.639  -0.637  -0.623  -0.620
 -0.614  -0.610  -0.606  -0.594  -0.588  -0.580  -0.577  -0.573
 -0.564  -0.557  -0.549  -0.548  -0.546  -0.543  -0.528  -0.511
 -0.505  -0.497  -0.476  -0.454  -0.451  -0.443
 -- Virtual --
 -0.420  -0.415  -0.409  -0.390  -0.386  -0.354  -0.323  -0.287
 -0.249  -0.214  -0.213  -0.196  -0.193  -0.170  -0.167  -0.161
 -0.158  -0.151  -0.142  -0.141  -0.136  -0.131  -0.122  -0.113
 -0.107  -0.101  -0.099  -0.096  -0.094  -0.090  -0.086  -0.079
 -0.074  -0.067  -0.065  -0.061  -0.059  -0.049  -0.042  -0.035
 -0.031  -0.021  -0.012  -0.008   0.000   0.021   0.040   0.057
  0.067   0.074   0.091   0.102   0.114   0.125   0.142   0.158
  0.161   0.169   0.174   0.177   0.184   0.191   0.197   0.206
  0.222   0.225   0.228   0.236   0.251   0.260   0.266   0.286
  0.294   0.307   0.311   0.317   0.322   0.330   0.337   0.339
  0.339   0.348   0.354   0.362   0.369   0.374   0.381   0.387
  0.391   0.397   0.400   0.408   0.414   0.419   0.420   0.424
  0.427   0.434   0.437   0.439   0.444   0.452   0.453   0.455
  0.462   0.463   0.468   0.475   0.481   0.486   0.498   0.503
  0.509   0.517   0.535   0.537   0.552   0.569   0.577   0.581
  0.591   0.596   0.611   0.626   0.637   0.643   0.650   0.661
  0.684   0.696   0.700   0.728   0.741   0.767   0.784   0.791
  0.809   0.833   0.840   0.854   0.860   0.870   0.887   0.907
  0.917   0.925   0.966   0.999   1.007   1.013   1.036   1.139
  1.198
 --------------------------------------------------------------
 
          Ground-State Mulliken Net Atomic Charges

     Atom                 Charge (a.u.)    Spin (a.u.)
  --------------------------------------------------------
      1 C                    -0.044963      -0.289119
      2 C                     0.002304       0.017386
      3 C                    -0.052260      -0.154183
      4 C                     0.015066      -0.112411
      5 C                    -0.102314      -0.006867
      6 C                    -0.125238      -0.135935
      7 H                     0.158018       0.014846
      8 H                     0.139373       0.013930
      9 H                     0.109415       0.000110
     10 H                     0.083547       0.007821
     11 H                     0.080328       0.000816
     12 C                     0.057099      -0.061179
     13 H                     0.106249       0.003999
     14 C                    -0.092995      -0.185609
     15 C                    -0.100183       0.012632
     16 C                    -0.064130      -0.003351
     17 H                     0.119110      -0.005290
     18 H                     0.123142      -0.019088
     19 C                    -0.072184       0.000772
     20 H                     0.099018      -0.000709
     21 H                     0.110460       0.000217
     22 C                    -0.164308       0.002073
     23 H                     0.100816      -0.002267
     24 H                     0.068837       0.000265
     25 C                    -0.169245       0.013602
     26 H                     0.112560       0.000009
     27 H                     0.135069      -0.013329
     28 H                     0.139090      -0.010495
     29 C                    -0.137942      -0.003522
     30 H                     0.124377       0.000320
     31 H                     0.118523       0.000166
     32 H                     0.096803       0.000038
     33 C                    -0.245011       0.031558
     34 H                    -0.064703      -0.021072
     35 H                     0.103710      -0.001007
     36 H                     0.177395      -0.001289
     37 C                    -0.137988       0.010917
     38 H                     0.125891      -0.000492
     39 H                     0.137593      -0.006350
     40 H                     0.106465      -0.009542
     41 Fe                    1.052934       3.275660
     42 O                    -0.282994       0.690991
     43 O                     0.053267       0.944978
  --------------------------------------------------------
  Sum of atomic charges =     2.000000
  Sum of spin   charges =     4.000000

 -----------------------------------------------------------------
                    Cartesian Multipole Moments
 -----------------------------------------------------------------
    Charge (ESU x 10^10)
                 9.6064
    Dipole Moment (Debye)
         X      -2.4363      Y       0.9970      Z       1.6013
       Tot       3.0812
    Quadrupole Moments (Debye-Ang)
        XX     -21.1826     XY      18.7811     YY     -75.2108
        XZ       1.2615     YZ      -1.1188     ZZ    -100.4667
    Octopole Moments (Debye-Ang^2)
       XXX    -259.5792    XXY    -122.8664    XYY      -5.9356
       YYY      85.3355    XXZ      18.5997    XYZ      -5.7588
       YYZ      39.7173    XZZ     -17.6801    YZZ      12.8799
       ZZZ      13.5224
    Hexadecapole Moments (Debye-Ang^3)
      XXXX   -3625.0911   XXXY     504.0250   XXYY   -1124.2617
      XYYY    -119.9126   YYYY   -1818.4937   XXXZ     -73.7983
      XXYZ    -101.1698   XYYZ     -17.4315   YYYZ      13.7777
      XXZZ   -1046.7175   XYZZ     -20.6150   YYZZ    -450.7129
      XZZZ     -12.3009   YZZZ      20.3597   ZZZZ    -830.8358
 -----------------------------------------------------------------
 Calculating analytic gradient of the SCF energy
 Gradient of SCF Energy
            1           2           3           4           5           6
    1   0.0047797  -0.0170410   0.0206554  -0.0226462   0.0234652  -0.0217866
    2   0.0030661  -0.0052257   0.0057276  -0.0074017   0.0064439  -0.0066762
    3  -0.0082467   0.0096954  -0.0111679   0.0134673  -0.0048850   0.0003072
            7           8           9          10          11          12
    1   0.0036988  -0.0007646   0.0012384  -0.0009521   0.0000251   0.0148307
    2   0.0000437   0.0011121  -0.0002414   0.0006021  -0.0006135  -0.0163041
    3   0.0018671  -0.0036779   0.0020612  -0.0025768  -0.0023933   0.0102861
           13          14          15          16          17          18
    1   0.0011663  -0.0070454   0.0008794   0.0029515  -0.0000187   0.0014558
    2  -0.0046549   0.0158388  -0.0019659  -0.0015717   0.0020755  -0.0004341
    3   0.0018216  -0.0180696   0.0088236   0.0005443  -0.0015890  -0.0033749
           19          20          21          22          23          24
    1  -0.0009753  -0.0017814  -0.0014148  -0.0004760  -0.0012533  -0.0000226
    2   0.0023928   0.0010618  -0.0004519   0.0085153  -0.0014866  -0.0013674
    3  -0.0008912   0.0018027  -0.0010898  -0.0007438   0.0011172  -0.0032832
           25          26          27          28          29          30
    1  -0.0009610   0.0011402  -0.0006500  -0.0012973   0.0021814  -0.0018191
    2  -0.0043257   0.0025067  -0.0002445   0.0021284  -0.0037455   0.0022554
    3   0.0056811   0.0012533  -0.0037424  -0.0005072  -0.0008166  -0.0002565
           31          32          33          34          35          36
    1  -0.0019072   0.0023344   0.0007237  -0.0280133   0.0028078   0.0006690
    2  -0.0015184   0.0001550   0.0050315   0.0011841  -0.0003917  -0.0036512
    3   0.0010864   0.0022810   0.0176984  -0.0232662   0.0081629  -0.0018147
           37          38          39          40          41          42
    1   0.0006941   0.0023145  -0.0008083  -0.0002428   0.0448123  -0.0703267
    2   0.0020911  -0.0000559   0.0019271  -0.0030262   0.0028855  -0.0021660
    3  -0.0044882   0.0015726   0.0020625   0.0005744   0.0086269  -0.0041192
           43
    1   0.0493801
    2   0.0004757
    3   0.0002069
 Max gradient component =       7.033E-02
 RMS gradient           =       1.111E-02
 Gradient time:  CPU 41.89 s  wall 5.34 s
 Geometry Optimization Parameters
   NAtoms,    NIC,     NZ,  NCons,   NDum,   NFix, NCnnct, MaxDiis
       43     324       0       0       0       0       0       0

 Cartesian Hessian Update
 Hessian Updated using BFGS Update


** GEOMETRY OPTIMIZATION IN DELOCALIZED INTERNAL COORDINATES **
   Searching for a Minimum

   Optimization Cycle:   2

                       Coordinates (Angstroms)
     ATOM                X               Y               Z
      1  C        -5.6967149311   -1.8759331973    0.5696303788
      2  C        -4.7020470418   -1.4866785017   -0.2953199453
      3  C        -3.3108517158   -1.3852701644    0.0886675145
      4  C        -2.2280321436   -1.0014664415   -0.7097549950
      5  C        -0.8996392822   -0.9773219865   -0.1000325518
      6  C         0.2783269927   -0.6059095269   -0.7344017716
      7  H        -6.7448318812   -1.9423527172    0.2492191982
      8  H        -5.4858729586   -2.1364870208    1.6179652566
      9  H        -4.9758553054   -1.2383306445   -1.3309384791
     10  H        -3.0944371746   -1.6496825497    1.1372154966
     11  H        -0.8596033174   -1.2987319887    0.9516863827
     12  C         1.6508458109   -0.6238952984   -0.1880727327
     13  H         0.2018621489   -0.2414559389   -1.7710915300
     14  C         2.1263184605   -1.6687733794    0.5996635912
     15  C         3.5507187515   -1.7043512932    1.1526247892
     16  C         4.5373761335   -0.7431718293    0.4470192766
     17  H         3.9291788174   -2.7466806741    1.1027889815
     18  H         3.5039931044   -1.4650119320    2.2423378395
     19  C         3.8726774621    0.6331035069    0.2346614372
     20  H         4.8429317501   -1.1750170093   -0.5279826774
     21  H         5.4629548659   -0.6379214803    1.0466053490
     22  C         2.5835482342    0.5577013962   -0.6556612426
     23  H         4.5860386025    1.3439119378   -0.2305533286
     24  H         3.6004369904    1.0580696143    1.2262850081
     25  C         1.3013740200   -2.8917360026    0.9814923495
     26  H         0.3924281529   -3.0173721662    0.3685437176
     27  H         0.9902256963   -2.8481447379    2.0492359747
     28  H         1.9150398494   -3.8103275925    0.8794337632
     29  C         2.9760118182    0.3496028400   -2.1627297183
     30  H         3.5358348220   -0.5936753215   -2.3002345389
     31  H         3.6132587224    1.1859838501   -2.5147839106
     32  H         2.0840910256    0.3099006159   -2.8193543152
     33  C         1.8814738273    1.9509485428   -0.5353473934
     34  H         1.5416262513    2.1205659022    0.5159497477
     35  H         1.0138010495    2.0527152727   -1.2237670549
     36  H         2.6018637148    2.7559599446   -0.7809194879
     37  C        -2.3687383775   -0.6180040637   -2.1784105362
     38  H        -3.3987332154   -0.7356649728   -2.5528500782
     39  H        -1.7083989139   -1.2406268834   -2.8155039563
     40  H        -2.0737053683    0.4398575254   -2.3444079114
     41  Fe       -0.0289219734    2.4495502590    0.7588272087
     42  O        -1.9618050287    2.4579942373    0.7576126044
     43  O        -3.2228669710    2.4668041312    0.7527411219
   Point Group: c1    Number of degrees of freedom:   123


   Energy is  -2036.282702168

 Hessian Updated using BFGS Update

114 Hessian modes will be used to form the next step
  Hessian Eigenvalues:
     0.002000    0.002006    0.003083    0.003516    0.005537    0.005811
     0.005935    0.008827    0.009089    0.010574    0.012559    0.013538
     0.013686    0.014827    0.015347    0.019787    0.020143    0.021387
     0.023909    0.024865    0.026398    0.027414    0.027416    0.028335
     0.029322    0.031403    0.040560    0.044156    0.047837    0.049066
     0.051398    0.053379    0.054223    0.055446    0.057495    0.066440
     0.068425    0.069103    0.071649    0.072006    0.076859    0.078568
     0.082977    0.084087    0.088694    0.096913    0.100875    0.101515
     0.121608    0.124965    0.135432    0.145420    0.146376    0.157321
     0.159793    0.159934    0.159998    0.160000    0.160106    0.160445
     0.177873    0.191693    0.199974    0.200005    0.216771    0.220001
     0.220027    0.220082    0.226847    0.247979    0.249980    0.249993
     0.256693    0.259740    0.261179    0.263629    0.271901    0.276148
     0.277636    0.286530    0.298182    0.299353    0.303227    0.323988
     0.327863    0.328534    0.329007    0.330063    0.330186    0.330478
     0.330804    0.331099    0.331216    0.331409    0.332185    0.333488
     0.334639    0.336750    0.338127    0.338472    0.339694    0.340558
     0.341183    0.341535    0.342337    0.345017    0.359006    0.371544
     0.380229    0.466828    0.488706    0.517536    0.524197    0.793674

 Minimum Search - Taking Simple RFO Step
 Searching for Lamda that Minimizes Along All modes
 Value Taken    Lamda =  -0.03519536
 Calculated Step too Large.  Step scaled by  0.528122
 Step Taken.  Stepsize is  0.300000

                             Maximum     Tolerance    Cnvgd?
         Gradient           0.028879      0.000300      NO
         Displacement       0.124323      0.001200      NO
         Energy change     -0.014386      0.000001      NO


 New Cartesian Coordinates Obtained by Inverse Iteration

 Displacement from previous Coordinates is:  1.346326
 ----------------------------------------------------------------
             Standard Nuclear Orientation (Angstroms)
    I     Atom           X                Y                Z
 ----------------------------------------------------------------
    1      C      -5.7224359311    -1.7494889154     0.5929503911
    2      C      -4.7113534873    -1.3762005534    -0.2882838310
    3      C      -3.3341618992    -1.3098873699     0.1103311092
    4      C      -2.2222558459    -0.9484372687    -0.7022820515
    5      C      -0.9133232511    -0.9633975524    -0.0760361538
    6      C       0.2962730685    -0.6068746443    -0.7129141372
    7      H      -6.7787955943    -1.7949826831     0.2683611403
    8      H      -5.5146961856    -2.0163006428     1.6486453588
    9      H      -4.9793798911    -1.1235859816    -1.3295204588
   10      H      -3.1296888368    -1.5796080934     1.1660105951
   11      H      -0.8927425794    -1.2876700945     0.9808028240
   12      C       1.6660415365    -0.6419119565    -0.1896404317
   13      H       0.2170633292    -0.2132511489    -1.7456640603
   14      C       2.1679176846    -1.7029843167     0.6071389565
   15      C       3.5909938781    -1.7046196601     1.1482311377
   16      C       4.5601308339    -0.7134177511     0.4550586964
   17      H       3.9926368043    -2.7424477446     1.1003566916
   18      H       3.5266878091    -1.4738085154     2.2457377669
   19      C       3.8695821143     0.6499312324     0.2474831876
   20      H       4.8870485353    -1.1348686746    -0.5232790508
   21      H       5.4814054259    -0.5888436142     1.0642117495
   22      C       2.5883569094     0.5445871940    -0.6604239885
   23      H       4.5753578483     1.3789768241    -0.2117481801
   24      H       3.5805990133     1.0687920658     1.2446934397
   25      C       1.3786160128    -2.9464448577     0.9865363123
   26      H       0.4671176203    -3.1175466281     0.3794748299
   27      H       1.0804098118    -2.9065728180     2.0651079165
   28      H       2.0245107989    -3.8488785827     0.8877758781
   29      C       2.9899737921     0.3581698169    -2.1719392453
   30      H       3.5786521676    -0.5741707348    -2.3062946441
   31      H       3.6125408724     1.2139931482    -2.5200973075
   32      H       2.1003314609     0.2975220798    -2.8412334493
   33      C       1.8346914085     1.9065049258    -0.5582032313
   34      H       1.4898527301     2.0534178080     0.5194759671
   35      H       0.9716658574     1.9680126887    -1.2800761502
   36      H       2.5121730180     2.7590852026    -0.7810898690
   37      C      -2.3562597011    -0.5657570659    -2.1713234287
   38      H      -3.3937783534    -0.6557157962    -2.5481688237
   39      H      -1.7146551821    -1.2105515170    -2.8152172305
   40      H      -2.0346648714     0.4902701307    -2.3423986756
   41      Fe     -0.1638060964     2.2737979383     0.6966786822
   42      O      -2.0332108083     2.1854183331     0.6705217291
   43      O      -3.3322403523     2.1224200555     0.6483388718
 ----------------------------------------------------------------
 Molecular Point Group                 C1    NOp =  1
 Largest Abelian Subgroup              C1    NOp =  1
 Nuclear Repulsion Energy =  1763.5088597084 hartrees
 There are       82 alpha and       78 beta electrons
 Applying Cartesian multipole field
    Component          Value
    ---------          -----
     (2,0,0)        1.00000E-12
     (0,2,0)        2.00000E-11
     (0,0,2)       -3.00000E-11
 Nucleus-field energy     =     0.0000000192 hartrees
 Requested basis set is VDZ
 There are 147 shells and 231 basis functions
 A cutoff of  1.0D-11 yielded   8311 shell pairs
 There are     20955 function pairs (     21331 Cartesian)
 Smallest overlap matrix eigenvalue = 1.11E-03
 Guess MOs from SCF MO coefficient file

 -----------------------------------------------------------------------
  General SCF calculation program by
  Eric Jon Sundstrom, Paul Horn, Yuezhi Mao, Dmitri Zuev, Alec White,
  David Stuck, Shaama M.S., Shane Yost, Joonho Lee, David Small,
  Daniel Levine, Susi Lehtola, Hugh Burton, Evgeny Epifanovsky
 -----------------------------------------------------------------------
 Exchange:  B88      Correlation:  LYP
 Using SG-1 standard quadrature grid
 using 8 threads for integral computing
 -------------------------------------------------------
 OpenMP Integral computing Module                
 Release: version 1.0, May 2013, Q-Chem Inc. Pittsburgh 
 -------------------------------------------------------
 -------------------------------------------------------
 OpenMP BLAS3 based DFT computing Module                
 Release: version 1.0, May 2013, Q-Chem Inc. Pittsburgh 
 -------------------------------------------------------
 A unrestricted SCF calculation will be
 performed using DIIS
 SCF converges when DIIS error is below 1.0e-08
 ---------------------------------------
  Cycle       Energy         DIIS error
 ---------------------------------------
    1   -2036.2849070547      4.30e-04  
    2   -2036.2806427420      6.57e-04  
    3   -2036.2244342972      1.61e-03  
    4   -2036.2674548878      8.94e-04  
    5   -2036.2938202203      2.56e-04  
    6   -2036.2950250408      1.51e-04  
    7   -2036.2954359971      5.88e-05  
    8   -2036.2955202382      3.50e-05  
    9   -2036.2955425688      2.30e-05  
   10   -2036.2955616533      7.27e-06  
   11   -2036.2955641726      3.00e-06  
   12   -2036.2955650614      1.50e-06  
   13   -2036.2955655994      1.21e-06  
   14   -2036.2955660556      1.51e-06  
   15   -2036.2955664108      6.61e-07  
   16   -2036.2955665807      2.50e-07  
   17   -2036.2955666575      2.54e-07  
   18   -2036.2955667585      1.83e-07  
   19   -2036.2955669069      3.52e-07  
   20   -2036.2955669459      2.10e-07  
   21   -2036.2955669546      4.72e-08  
   22   -2036.2955669577      5.86e-08  
   23   -2036.2955669581      3.64e-08  
   24   -2036.2955669582      1.89e-08  
   25   -2036.2955669582      1.15e-08  
   26   -2036.2955669582      4.02e-09  Convergence criterion met
 ---------------------------------------
 SCF time:   CPU 559.41s  wall 70.00s 
<S^2> =          6.843758543
 SCF   energy in the final basis set =    -2036.2955669582
 Total energy in the final basis set =    -2036.2955669582
 
 --------------------------------------------------------------
 
                    Orbital Energies (a.u.)
 --------------------------------------------------------------
 
 Alpha MOs
 -- Occupied --
******* -29.843 -25.802 -25.801 -25.790 -19.140 -19.130 -10.228
-10.222 -10.222 -10.217 -10.217 -10.212 -10.210 -10.209 -10.193
-10.191 -10.164 -10.157 -10.156 -10.153 -10.148 -10.139  -3.609
 -2.436  -2.434  -2.415  -1.341  -1.024  -1.004  -0.976  -0.966
 -0.958  -0.928  -0.901  -0.882  -0.863  -0.853  -0.833  -0.811
 -0.767  -0.763  -0.735  -0.725  -0.717  -0.705  -0.692  -0.679
 -0.673  -0.672  -0.666  -0.657  -0.646  -0.639  -0.623  -0.618
 -0.613  -0.610  -0.605  -0.595  -0.588  -0.582  -0.579  -0.573
 -0.566  -0.560  -0.554  -0.550  -0.547  -0.545  -0.543  -0.541
 -0.525  -0.524  -0.520  -0.512  -0.511  -0.506  -0.499  -0.468
 -0.459  -0.458
 -- Virtual --
 -0.426  -0.354  -0.348  -0.283  -0.246  -0.220  -0.214  -0.210
 -0.197  -0.177  -0.170  -0.168  -0.161  -0.154  -0.154  -0.144
 -0.142  -0.134  -0.125  -0.120  -0.115  -0.109  -0.102  -0.100
 -0.098  -0.095  -0.091  -0.088  -0.080  -0.069  -0.068  -0.065
 -0.062  -0.055  -0.043  -0.038  -0.036  -0.022  -0.015  -0.009
 -0.002   0.020   0.034   0.057   0.062   0.071   0.089   0.100
  0.106   0.120   0.141   0.157   0.160   0.167   0.172   0.177
  0.180   0.186   0.197   0.207   0.218   0.221   0.229   0.231
  0.248   0.256   0.263   0.281   0.292   0.302   0.309   0.312
  0.317   0.328   0.333   0.335   0.336   0.343   0.351   0.357
  0.365   0.370   0.378   0.381   0.387   0.388   0.397   0.403
  0.408   0.411   0.414   0.418   0.421   0.429   0.431   0.434
  0.440   0.441   0.447   0.451   0.455   0.460   0.462   0.468
  0.475   0.480   0.493   0.499   0.503   0.510   0.526   0.533
  0.541   0.561   0.564   0.577   0.582   0.595   0.599   0.616
  0.626   0.630   0.639   0.648   0.667   0.675   0.696   0.727
  0.738   0.759   0.780   0.785   0.803   0.831   0.832   0.850
  0.862   0.867   0.871   0.896   0.912   0.922   0.968   0.998
  1.001   1.003   1.027   1.109   1.129
 
 Beta MOs
 -- Occupied --
******* -29.791 -25.760 -25.759 -25.755 -19.123 -19.108 -10.227
-10.224 -10.223 -10.220 -10.217 -10.214 -10.210 -10.210 -10.196
-10.191 -10.164 -10.157 -10.156 -10.153 -10.148 -10.139  -3.484
 -2.309  -2.308  -2.304  -1.302  -1.027  -1.007  -0.969  -0.961
 -0.930  -0.930  -0.902  -0.883  -0.865  -0.855  -0.834  -0.814
 -0.769  -0.765  -0.736  -0.726  -0.706  -0.698  -0.681  -0.678
 -0.666  -0.658  -0.647  -0.640  -0.629  -0.623  -0.620  -0.618
 -0.612  -0.611  -0.606  -0.596  -0.589  -0.583  -0.579  -0.574
 -0.567  -0.559  -0.554  -0.551  -0.548  -0.544  -0.530  -0.514
 -0.507  -0.500  -0.477  -0.455  -0.452  -0.443
 -- Virtual --
 -0.422  -0.415  -0.409  -0.389  -0.385  -0.361  -0.320  -0.294
 -0.254  -0.220  -0.218  -0.202  -0.196  -0.173  -0.170  -0.163
 -0.160  -0.153  -0.148  -0.145  -0.141  -0.135  -0.125  -0.115
 -0.110  -0.107  -0.102  -0.100  -0.098  -0.095  -0.089  -0.087
 -0.080  -0.070  -0.068  -0.064  -0.063  -0.055  -0.044  -0.037
 -0.037  -0.024  -0.016  -0.010  -0.003   0.018   0.033   0.055
  0.061   0.070   0.088   0.098   0.104   0.119   0.140   0.157
  0.159   0.166   0.171   0.176   0.180   0.186   0.194   0.204
  0.216   0.220   0.222   0.230   0.248   0.255   0.260   0.281
  0.290   0.302   0.308   0.312   0.316   0.328   0.333   0.334
  0.335   0.343   0.351   0.356   0.364   0.369   0.376   0.379
  0.385   0.387   0.396   0.402   0.407   0.410   0.413   0.418
  0.421   0.428   0.430   0.433   0.439   0.441   0.447   0.451
  0.455   0.460   0.462   0.468   0.474   0.480   0.493   0.499
  0.503   0.512   0.531   0.536   0.564   0.566   0.578   0.586
  0.590   0.601   0.606   0.632   0.637   0.653   0.665   0.675
  0.690   0.710   0.724   0.737   0.750   0.763   0.783   0.788
  0.805   0.834   0.836   0.854   0.862   0.881   0.891   0.907
  0.915   0.942   0.980   1.003   1.005   1.012   1.029   1.127
  1.147
 --------------------------------------------------------------
 
          Ground-State Mulliken Net Atomic Charges

     Atom                 Charge (a.u.)    Spin (a.u.)
  --------------------------------------------------------
      1 C                    -0.047385      -0.284766
      2 C                    -0.001796       0.023636
      3 C                    -0.046577      -0.140124
      4 C                     0.016465      -0.109262
      5 C                    -0.107485       0.008231
      6 C                    -0.148439      -0.118894
      7 H                     0.163293       0.014619
      8 H                     0.145955       0.013743
      9 H                     0.115759      -0.000226
     10 H                     0.090179       0.007147
     11 H                     0.084587      -0.000001
     12 C                     0.059611      -0.058042
     13 H                     0.113363       0.003113
     14 C                    -0.076490      -0.184294
     15 C                    -0.113698       0.013243
     16 C                    -0.066791      -0.003123
     17 H                     0.123299      -0.005433
     18 H                     0.128748      -0.018958
     19 C                    -0.073677       0.000408
     20 H                     0.102461      -0.000689
     21 H                     0.113467       0.000201
     22 C                    -0.163556       0.001965
     23 H                     0.104488      -0.002339
     24 H                     0.073144       0.000299
     25 C                    -0.176193       0.014079
     26 H                     0.115400      -0.000313
     27 H                     0.139003      -0.014049
     28 H                     0.143613      -0.009422
     29 C                    -0.143776      -0.003461
     30 H                     0.125403       0.000270
     31 H                     0.122174       0.000290
     32 H                     0.099402       0.000003
     33 C                    -0.270499       0.025775
     34 H                    -0.034619      -0.018836
     35 H                     0.109355      -0.000369
     36 H                     0.178123      -0.000994
     37 C                    -0.146425       0.010808
     38 H                     0.128858      -0.000483
     39 H                     0.140537      -0.005904
     40 H                     0.108157      -0.009561
     41 Fe                    1.058612       3.298589
     42 O                    -0.317906       0.658413
     43 O                     0.031853       0.894711
  --------------------------------------------------------
  Sum of atomic charges =     2.000000
  Sum of spin   charges =     4.000000

 -----------------------------------------------------------------
                    Cartesian Multipole Moments
 -----------------------------------------------------------------
    Charge (ESU x 10^10)
                 9.6064
    Dipole Moment (Debye)
         X      -2.3492      Y      -0.0421      Z       1.4298
       Tot       2.7504
    Quadrupole Moments (Debye-Ang)
        XX     -18.5274     XY      17.4662     YY     -78.8040
        XZ       1.2863     YZ      -2.9955     ZZ    -100.3925
    Octopole Moments (Debye-Ang^2)
       XXX    -260.0140    XXY    -121.0588    XYY       1.1458
       YYY      79.8496    XXZ      22.8837    XYZ      -6.3834
       YYZ      37.4674    XZZ     -16.1982    YZZ      13.9757
       ZZZ      16.0715
    Hexadecapole Moments (Debye-Ang^3)
      XXXX   -3583.9856   XXXY     519.6858   XXYY   -1130.2163
      XYYY    -108.6825   YYYY   -1683.0498   XXXZ     -80.1203
      XXYZ     -98.9348   XYYZ     -14.9271   YYYZ      25.7523
      XXZZ   -1050.3769   XYZZ     -10.5812   YYZZ    -424.8673
      XZZZ     -11.2453   YZZZ      43.8452   ZZZZ    -818.7525
 -----------------------------------------------------------------
 Calculating analytic gradient of the SCF energy
 Gradient of SCF Energy
            1           2           3           4           5           6
    1  -0.0001895  -0.0013402   0.0038218  -0.0074665   0.0068304  -0.0070164
    2   0.0001763  -0.0001588   0.0005952  -0.0004180   0.0027842  -0.0037856
    3   0.0001666   0.0009290  -0.0026981   0.0019921   0.0000238  -0.0031230
            7           8           9          10          11          12
    1  -0.0011504  -0.0002849   0.0008984  -0.0010714  -0.0014812   0.0068943
    2  -0.0002115  -0.0003845   0.0004908  -0.0006594  -0.0004668  -0.0001844
    3   0.0000662   0.0014908  -0.0015132   0.0015333   0.0009944  -0.0013749
           13          14          15          16          17          18
    1   0.0016349  -0.0001787  -0.0007049   0.0005739   0.0000077   0.0002596
    2  -0.0021877   0.0009488  -0.0009039  -0.0000092  -0.0003680  -0.0000103
    3  -0.0018182  -0.0045943   0.0048344   0.0005543  -0.0014542  -0.0002047
           19          20          21          22          23          24
    1   0.0004245  -0.0007161   0.0004204  -0.0012150   0.0007528  -0.0003461
    2  -0.0002989  -0.0001495   0.0002807   0.0060014   0.0001191   0.0001625
    3  -0.0000676  -0.0007908  -0.0000258   0.0010628   0.0000478   0.0007488
           25          26          27          28          29          30
    1   0.0015136  -0.0000153  -0.0006969   0.0003740  -0.0002207  -0.0000937
    2  -0.0028272  -0.0002534   0.0002407  -0.0001510  -0.0002813  -0.0004748
    3   0.0033548  -0.0001873   0.0001003  -0.0005693   0.0005384   0.0002934
           31          32          33          34          35          36
    1   0.0001203  -0.0005117   0.0072540  -0.0198621  -0.0031279   0.0008547
    2   0.0006948   0.0002239  -0.0020004  -0.0011326  -0.0007020  -0.0008759
    3  -0.0005062  -0.0007613   0.0089697  -0.0118209  -0.0004162  -0.0014710
           37          38          39          40          41          42
    1   0.0006558  -0.0006026   0.0007417   0.0006106   0.0280346  -0.0278064
    2   0.0007781  -0.0003679  -0.0001188   0.0004960   0.0075902  -0.0042892
    3  -0.0013321  -0.0000997  -0.0002440  -0.0002194   0.0116166  -0.0042566
           43
    1   0.0134202
    2   0.0020882
    3   0.0002314
 Max gradient component =       2.803E-02
 RMS gradient           =       4.877E-03
 Gradient time:  CPU 42.13 s  wall 5.38 s
 Geometry Optimization Parameters
   NAtoms,    NIC,     NZ,  NCons,   NDum,   NFix, NCnnct, MaxDiis
       43     324       0       0       0       0       0       0

 Cartesian Hessian Update
 Hessian Updated using BFGS Update


** GEOMETRY OPTIMIZATION IN DELOCALIZED INTERNAL COORDINATES **
   Searching for a Minimum

   Optimization Cycle:   3

                       Coordinates (Angstroms)
     ATOM                X               Y               Z
      1  C        -5.7224359311   -1.7494889154    0.5929503911
      2  C        -4.7113534873   -1.3762005534   -0.2882838310
      3  C        -3.3341618992   -1.3098873699    0.1103311092
      4  C        -2.2222558459   -0.9484372687   -0.7022820515
      5  C        -0.9133232511   -0.9633975524   -0.0760361538
      6  C         0.2962730685   -0.6068746443   -0.7129141372
      7  H        -6.7787955943   -1.7949826831    0.2683611403
      8  H        -5.5146961856   -2.0163006428    1.6486453588
      9  H        -4.9793798911   -1.1235859816   -1.3295204588
     10  H        -3.1296888368   -1.5796080934    1.1660105951
     11  H        -0.8927425794   -1.2876700945    0.9808028240
     12  C         1.6660415365   -0.6419119565   -0.1896404317
     13  H         0.2170633292   -0.2132511489   -1.7456640603
     14  C         2.1679176846   -1.7029843167    0.6071389565
     15  C         3.5909938781   -1.7046196601    1.1482311377
     16  C         4.5601308339   -0.7134177511    0.4550586964
     17  H         3.9926368043   -2.7424477446    1.1003566916
     18  H         3.5266878091   -1.4738085154    2.2457377669
     19  C         3.8695821143    0.6499312324    0.2474831876
     20  H         4.8870485353   -1.1348686746   -0.5232790508
     21  H         5.4814054259   -0.5888436142    1.0642117495
     22  C         2.5883569094    0.5445871940   -0.6604239885
     23  H         4.5753578483    1.3789768241   -0.2117481801
     24  H         3.5805990133    1.0687920658    1.2446934397
     25  C         1.3786160128   -2.9464448577    0.9865363123
     26  H         0.4671176203   -3.1175466281    0.3794748299
     27  H         1.0804098118   -2.9065728180    2.0651079165
     28  H         2.0245107989   -3.8488785827    0.8877758781
     29  C         2.9899737921    0.3581698169   -2.1719392453
     30  H         3.5786521676   -0.5741707348   -2.3062946441
     31  H         3.6125408724    1.2139931482   -2.5200973075
     32  H         2.1003314609    0.2975220798   -2.8412334493
     33  C         1.8346914085    1.9065049258   -0.5582032313
     34  H         1.4898527301    2.0534178080    0.5194759671
     35  H         0.9716658574    1.9680126887   -1.2800761502
     36  H         2.5121730180    2.7590852026   -0.7810898690
     37  C        -2.3562597011   -0.5657570659   -2.1713234287
     38  H        -3.3937783534   -0.6557157962   -2.5481688237
     39  H        -1.7146551821   -1.2105515170   -2.8152172305
     40  H        -2.0346648714    0.4902701307   -2.3423986756
     41  Fe       -0.1638060964    2.2737979383    0.6966786822
     42  O        -2.0332108083    2.1854183331    0.6705217291
     43  O        -3.3322403523    2.1224200555    0.6483388718
   Point Group: c1    Number of degrees of freedom:   123


   Energy is  -2036.295566958

 Hessian Updated using BFGS Update

115 Hessian modes will be used to form the next step
  Hessian Eigenvalues:
     0.002000    0.002012    0.003089    0.003539    0.005537    0.005823
     0.005936    0.008742    0.009097    0.010504    0.012383    0.013555
     0.013699    0.015177    0.015349    0.019866    0.020148    0.021391
     0.024597    0.024938    0.026344    0.027415    0.027417    0.028363
     0.029324    0.032386    0.040571    0.044187    0.047865    0.050776
     0.051836    0.053387    0.054630    0.057121    0.058226    0.068080
     0.068883    0.069128    0.071613    0.072137    0.076204    0.078504
     0.078634    0.083096    0.091850    0.096800    0.100114    0.102462
     0.121646    0.125128    0.135343    0.142869    0.145587    0.157313
     0.159800    0.159964    0.159998    0.160000    0.160094    0.160135
     0.161521    0.176901    0.190774    0.199914    0.200002    0.219893
     0.220005    0.220048    0.221795    0.227393    0.247837    0.249992
     0.251983    0.258359    0.260014    0.261730    0.263752    0.271957
     0.276173    0.286425    0.287305    0.298017    0.299309    0.323681
     0.327784    0.328485    0.328960    0.330063    0.330185    0.330423
     0.330733    0.331095    0.331167    0.331390    0.331845    0.333271
     0.334615    0.336666    0.337145    0.338375    0.339060    0.339612
     0.340727    0.341245    0.342088    0.344703    0.353896    0.359075
     0.378311    0.380380    0.488333    0.500714    0.519065    0.563361
     0.810623

 Minimum Search - Taking Simple RFO Step
 Searching for Lamda that Minimizes Along All modes
 Value Taken    Lamda =  -0.01440195
 Calculated Step too Large.  Step scaled by  0.542312
 Step Taken.  Stepsize is  0.300000

                             Maximum     Tolerance    Cnvgd?
         Gradient           0.016276      0.000300      NO
         Displacement       0.116046      0.001200      NO
         Energy change     -0.012865      0.000001      NO


 New Cartesian Coordinates Obtained by Inverse Iteration

 Displacement from previous Coordinates is:  1.363014
 ----------------------------------------------------------------
             Standard Nuclear Orientation (Angstroms)
    I     Atom           X                Y                Z
 ----------------------------------------------------------------
    1      C      -5.6933874073    -1.8365171531     0.5929149559
    2      C      -4.6930393155    -1.3858433867    -0.2693883566
    3      C      -3.3215438213    -1.3210364533     0.1324187780
    4      C      -2.2140345636    -0.8922781949    -0.6666346564
    5      C      -0.9112209883    -0.9307635309    -0.0462466194
    6      C       0.2977884769    -0.5297184673    -0.6742159823
    7      H      -6.7509106529    -1.8810628929     0.2687075840
    8      H      -5.4724935424    -2.1666440177     1.6283443191
    9      H      -4.9756772571    -1.0740232702    -1.2903389928
   10      H      -3.1026147700    -1.6516241286     1.1676155365
   11      H      -0.8743379683    -1.3231602275     0.9871906180
   12      C       1.6662392058    -0.6047395828    -0.1797588726
   13      H       0.2000614682    -0.0809619789    -1.6835109818
   14      C       2.1468894167    -1.6760289199     0.6243677970
   15      C       3.5732124146    -1.7052122962     1.1492915567
   16      C       4.5609621485    -0.7344153135     0.4529767452
   17      H       3.9541680400    -2.7519891951     1.1164378918
   18      H       3.5136048962    -1.4629742386     2.2466709776
   19      C       3.8955923410     0.6404475074     0.2345451624
   20      H       4.8874140068    -1.1686161003    -0.5207371323
   21      H       5.4818256776    -0.6231706504     1.0663025128
   22      C       2.6181532382     0.5425818795    -0.6775980258
   23      H       4.6137320800     1.3542771844    -0.2307231174
   24      H       3.6097845721     1.0748932321     1.2269503818
   25      C       1.3110042048    -2.8788617802     1.0184441006
   26      H       0.3821281819    -3.0145083720     0.4263201781
   27      H       1.0335403183    -2.8186018321     2.1030732718
   28      H       1.9142432715    -3.8112666005     0.9195344323
   29      C       3.0259811740     0.3297157573    -2.1845813287
   30      H       3.6089096074    -0.6096500952    -2.3023995903
   31      H       3.6589698517     1.1749800903    -2.5413038106
   32      H       2.1387938284     0.2660699136    -2.8582053653
   33      C       1.8558507644     1.8983229755    -0.6014268515
   34      H       1.5041376712     2.0372982030     0.4854543079
   35      H       1.0071123373     1.9370572435    -1.3427727133
   36      H       2.5079001131     2.7755297949    -0.8082920245
   37      C      -2.3719663245    -0.4233008895    -2.1052649093
   38      H      -3.4136046744    -0.5029413589    -2.4749735557
   39      H      -1.7319156449    -1.0182965586    -2.7980958014
   40      H      -2.0691388004     0.6474819430    -2.2139288778
   41      Fe     -0.2054126521     2.1515800999     0.5887031488
   42      O      -2.0213645261     1.9784687810     0.5219313849
   43      O      -3.3321549226     1.8421771423     0.4702907566
 ----------------------------------------------------------------
 Molecular Point Group                 C1    NOp =  1
 Largest Abelian Subgroup              C1    NOp =  1
 Nuclear Repulsion Energy =  1786.9925433644 hartrees
 There are       82 alpha and       78 beta electrons
 Applying Cartesian multipole field
    Component          Value
    ---------          -----
     (2,0,0)        1.00000E-12
     (0,2,0)        2.00000E-11
     (0,0,2)       -3.00000E-11
 Nucleus-field energy     =     0.0000000177 hartrees
 Requested basis set is VDZ
 There are 147 shells and 231 basis functions
 A cutoff of  1.0D-11 yielded   8376 shell pairs
 There are     21160 function pairs (     21543 Cartesian)
 Smallest overlap matrix eigenvalue = 1.06E-03
 Guess MOs from SCF MO coefficient file

 -----------------------------------------------------------------------
  General SCF calculation program by
  Eric Jon Sundstrom, Paul Horn, Yuezhi Mao, Dmitri Zuev, Alec White,
  David Stuck, Shaama M.S., Shane Yost, Joonho Lee, David Small,
  Daniel Levine, Susi Lehtola, Hugh Burton, Evgeny Epifanovsky
 -----------------------------------------------------------------------
 Exchange:  B88      Correlation:  LYP
 Using SG-1 standard quadrature grid
 using 8 threads for integral computing
[...]
    2   -2036.3293527590      6.80e-06  
    3   -2036.3292450901      7.22e-05  
    4   -2036.3293527834      6.02e-06  
    5   -2036.3293536262      2.35e-06  
    6   -2036.3293537444      1.55e-06  
    7   -2036.3293538302      5.43e-07  
    8   -2036.3293538387      2.57e-07  
    9   -2036.3293538406      1.44e-07  
   10   -2036.3293538411      1.36e-07  
   11   -2036.3293538420      4.25e-08  
   12   -2036.3293538423      3.10e-08  
   13   -2036.3293538424      1.54e-08  
   14   -2036.3293538424      1.27e-08  
   15   -2036.3293538424      7.35e-09  Convergence criterion met
 ---------------------------------------
 SCF time:   CPU 345.24s  wall 43.00s 
<S^2> =          6.110389284
 SCF   energy in the final basis set =    -2036.3293538424
 Total energy in the final basis set =    -2036.3293538424
 
 --------------------------------------------------------------
 
                    Orbital Energies (a.u.)
 --------------------------------------------------------------
 
 Alpha MOs
 -- Occupied --
******* -29.881 -25.842 -25.836 -25.829 -19.155 -19.120 -10.246
-10.243 -10.239 -10.235 -10.234 -10.231 -10.219 -10.210 -10.209
-10.201 -10.176 -10.173 -10.172 -10.159 -10.151 -10.149  -3.635
 -2.467  -2.452  -2.441  -1.321  -1.047  -1.021  -0.984  -0.979
 -0.973  -0.947  -0.913  -0.890  -0.876  -0.868  -0.846  -0.832
 -0.784  -0.777  -0.751  -0.743  -0.725  -0.715  -0.694  -0.682
 -0.679  -0.669  -0.665  -0.663  -0.660  -0.650  -0.646  -0.633
 -0.626  -0.623  -0.622  -0.610  -0.603  -0.600  -0.592  -0.586
 -0.583  -0.580  -0.576  -0.568  -0.559  -0.556  -0.555  -0.551
 -0.546  -0.538  -0.532  -0.524  -0.520  -0.514  -0.509  -0.489
 -0.464  -0.460
 -- Virtual --
 -0.427  -0.379  -0.330  -0.299  -0.270  -0.232  -0.222  -0.214
 -0.199  -0.187  -0.179  -0.175  -0.168  -0.164  -0.157  -0.156
 -0.149  -0.146  -0.140  -0.135  -0.123  -0.118  -0.114  -0.109
 -0.103  -0.101  -0.098  -0.094  -0.088  -0.079  -0.078  -0.075
 -0.073  -0.064  -0.055  -0.048  -0.044  -0.031  -0.028  -0.020
 -0.010   0.002   0.021   0.036   0.042   0.061   0.073   0.082
  0.102   0.105   0.125   0.137   0.151   0.153   0.159   0.164
  0.170   0.174   0.184   0.192   0.205   0.212   0.214   0.221
  0.232   0.240   0.252   0.266   0.292   0.294   0.299   0.305
  0.306   0.315   0.323   0.329   0.331   0.335   0.346   0.349
  0.355   0.358   0.361   0.369   0.371   0.379   0.386   0.390
  0.394   0.396   0.403   0.408   0.408   0.416   0.421   0.421
  0.425   0.432   0.434   0.443   0.446   0.453   0.454   0.458
  0.467   0.471   0.475   0.481   0.491   0.495   0.499   0.516
  0.542   0.551   0.563   0.579   0.589   0.608   0.612   0.621
  0.623   0.636   0.655   0.681   0.694   0.731   0.739   0.756
  0.764   0.781   0.791   0.811   0.831   0.851   0.854   0.861
  0.866   0.892   0.899   0.901   0.932   0.950   0.981   0.997
  1.013   1.040   1.060   1.174   1.232
 
 Beta MOs
 -- Occupied --
******* -29.830 -25.801 -25.796 -25.794 -19.146 -19.112 -10.244
-10.244 -10.239 -10.235 -10.234 -10.231 -10.219 -10.209 -10.209
-10.201 -10.176 -10.173 -10.172 -10.159 -10.151 -10.149  -3.515
 -2.342  -2.336  -2.333  -1.303  -1.046  -1.020  -0.981  -0.972
 -0.959  -0.947  -0.912  -0.889  -0.875  -0.867  -0.845  -0.831
 -0.782  -0.776  -0.750  -0.742  -0.724  -0.700  -0.693  -0.680
 -0.676  -0.661  -0.661  -0.654  -0.647  -0.643  -0.631  -0.630
 -0.623  -0.622  -0.619  -0.608  -0.602  -0.599  -0.590  -0.584
 -0.578  -0.575  -0.568  -0.567  -0.556  -0.552  -0.548  -0.523
 -0.519  -0.512  -0.503  -0.481  -0.477  -0.466
 -- Virtual --
 -0.444  -0.433  -0.419  -0.407  -0.399  -0.368  -0.318  -0.289
 -0.259  -0.229  -0.221  -0.210  -0.193  -0.186  -0.177  -0.169
 -0.165  -0.161  -0.156  -0.155  -0.147  -0.145  -0.138  -0.133
 -0.122  -0.118  -0.114  -0.109  -0.102  -0.100  -0.096  -0.093
 -0.088  -0.078  -0.077  -0.074  -0.071  -0.062  -0.055  -0.048
 -0.043  -0.030  -0.027  -0.020  -0.009   0.003   0.022   0.037
  0.043   0.063   0.075   0.083   0.105   0.107   0.127   0.139
  0.153   0.155   0.161   0.165   0.172   0.176   0.187   0.194
  0.206   0.212   0.217   0.222   0.234   0.241   0.253   0.270
  0.294   0.297   0.301   0.306   0.307   0.317   0.325   0.331
  0.333   0.339   0.347   0.351   0.357   0.359   0.362   0.372
  0.372   0.381   0.387   0.392   0.396   0.397   0.403   0.408
  0.409   0.417   0.421   0.422   0.426   0.433   0.435   0.445
  0.447   0.454   0.455   0.459   0.467   0.472   0.477   0.484
  0.492   0.499   0.503   0.518   0.550   0.556   0.568   0.587
  0.597   0.612   0.618   0.628   0.634   0.645   0.668   0.687
  0.710   0.741   0.753   0.768   0.782   0.784   0.798   0.814
  0.835   0.854   0.858   0.865   0.874   0.897   0.904   0.921
  0.946   0.958   0.984   1.008   1.019   1.045   1.071   1.196
  1.263
 --------------------------------------------------------------
 
          Ground-State Mulliken Net Atomic Charges

     Atom                 Charge (a.u.)    Spin (a.u.)
  --------------------------------------------------------
      1 C                    -0.034295       0.069528
      2 C                    -0.003899       0.000745
      3 C                    -0.018569       0.022508
      4 C                     0.039189       0.023020
      5 C                    -0.059992       0.008526
      6 C                    -0.425253      -0.030989
      7 H                     0.170207      -0.003551
      8 H                     0.151187      -0.003359
      9 H                     0.122252      -0.000175
     10 H                     0.096868      -0.001049
     11 H                     0.094012       0.001722
     12 C                    -0.187334      -0.013960
     13 H                     0.143474       0.007681
     14 C                    -0.037338       0.111575
     15 C                    -0.112197      -0.008509
     16 C                    -0.063924       0.003251
     17 H                     0.124551       0.002341
     18 H                     0.137476       0.010743
     19 C                    -0.064353       0.000593
     20 H                     0.107093       0.000629
     21 H                     0.118646      -0.000180
     22 C                    -0.065622       0.002425
     23 H                     0.112001       0.000702
     24 H                     0.067327       0.000322
     25 C                    -0.183338      -0.009156
     26 H                     0.129725       0.002212
     27 H                     0.148359       0.007815
     28 H                     0.148932       0.003005
     29 C                    -0.140384       0.003633
     30 H                     0.120598       0.001098
     31 H                     0.128204       0.000498
     32 H                     0.099064       0.000131
     33 C                    -0.424582       0.027692
     34 H                     0.112491       0.004371
     35 H                     0.144573       0.005549
     36 H                     0.187427       0.015496
     37 C                    -0.147219       0.000301
     38 H                     0.133137      -0.000269
     39 H                     0.140390       0.001588
     40 H                     0.125555       0.000675
     41 Fe                    1.148216       3.064570
     42 O                    -0.262813       0.335202
     43 O                    -0.019844       0.331051
  --------------------------------------------------------
  Sum of atomic charges =     2.000000
  Sum of spin   charges =     4.000000

 -----------------------------------------------------------------
                    Cartesian Multipole Moments
 -----------------------------------------------------------------
    Charge (ESU x 10^10)
                 9.6064
    Dipole Moment (Debye)
         X      -2.2323      Y      -4.7551      Z       0.9726
       Tot       5.3423
    Quadrupole Moments (Debye-Ang)
        XX      -7.5463     XY      21.8279     YY     -92.5534
        XZ       4.9039     YZ      -8.7387     ZZ     -99.6205
    Octopole Moments (Debye-Ang^2)
       XXX    -320.1077    XXY    -106.1929    XYY      -2.7128
       YYY      78.4508    XXZ      17.3884    XYZ      -4.4716
       YYZ      23.6420    XZZ     -16.9940    YZZ      25.0020
       ZZZ       7.5545
    Hexadecapole Moments (Debye-Ang^3)
      XXXX   -3056.4157   XXXY     431.8767   XXYY    -996.8514
      XYYY    -212.4451   YYYY   -1339.9689   XXXZ     -86.0499
      XXYZ     -98.0341   XYYZ     -29.5242   YYYZ       9.8664
      XXZZ   -1020.8928   XYZZ     -54.1882   YYZZ    -364.9179
      XZZZ     -34.5990   YZZZ      67.3018   ZZZZ    -858.8621
 -----------------------------------------------------------------
 Calculating analytic gradient of the SCF energy
 Gradient of SCF Energy
            1           2           3           4           5           6
    1   0.0000326   0.0000408  -0.0001641   0.0000005   0.0002148   0.0000139
    2  -0.0000665  -0.0002048  -0.0000017   0.0000693  -0.0001092   0.0001651
    3  -0.0002056  -0.0002286   0.0001086   0.0002910   0.0000135   0.0000631
            7           8           9          10          11          12
    1   0.0001183   0.0001752  -0.0001360  -0.0001062   0.0003070  -0.0002954
    2  -0.0000337   0.0002084   0.0001598  -0.0001621   0.0000728  -0.0001499
    3   0.0002594  -0.0001443  -0.0000078  -0.0000533   0.0000141   0.0003234
           13          14          15          16          17          18
    1  -0.0000998   0.0000703   0.0002377   0.0000456  -0.0002343  -0.0000557
    2  -0.0003347  -0.0004139  -0.0001156  -0.0002568  -0.0001596  -0.0000309
    3   0.0000669  -0.0000533   0.0002292   0.0001538  -0.0003381   0.0001612
           19          20          21          22          23          24
    1   0.0002416  -0.0001901  -0.0000596   0.0000054   0.0001195   0.0000143
    2  -0.0001088   0.0000260   0.0001245   0.0002935   0.0001702   0.0000068
    3   0.0000605   0.0000933  -0.0000490  -0.0002473  -0.0002877   0.0002859
           25          26          27          28          29          30
    1  -0.0000495   0.0002543  -0.0000456  -0.0000087  -0.0000074  -0.0001054
    2  -0.0002264   0.0000806   0.0001236   0.0002050   0.0000606   0.0000402
    3   0.0001730   0.0000920   0.0000166  -0.0000360  -0.0000211  -0.0000976
           31          32          33          34          35          36
    1   0.0000386  -0.0000054  -0.0000167   0.0000310  -0.0002406  -0.0002467
    2   0.0000374  -0.0000635   0.0001820   0.0000999   0.0000650   0.0000404
    3  -0.0000369   0.0001206  -0.0000963   0.0000524   0.0001580  -0.0000308
           37          38          39          40          41          42
    1  -0.0000655  -0.0001222   0.0000670   0.0000622   0.0001545  -0.0000758
    2  -0.0000278   0.0001720  -0.0002727   0.0002961   0.0001426  -0.0001479
    3  -0.0000165  -0.0002588  -0.0000728  -0.0001091  -0.0002080  -0.0000685
           43
    1   0.0000856
    2   0.0000448
    3  -0.0000691
 Max gradient component =       4.139E-04
 RMS gradient           =       1.549E-04
 Gradient time:  CPU 44.27 s  wall 5.64 s
 Geometry Optimization Parameters
   NAtoms,    NIC,     NZ,  NCons,   NDum,   NFix, NCnnct, MaxDiis
       43     324       0       0       0       0       0       0

 Cartesian Hessian Update
 Hessian Updated using BFGS Update


** GEOMETRY OPTIMIZATION IN CARTESIAN COORDINATES **
   Searching for a Minimum

   Optimization Cycle: 100

                       Coordinates (Angstroms)
     ATOM                X               Y               Z
      1  C        -5.7725359777   -1.7095769629    0.4989456910
      2  C        -4.7694823209   -1.2970869938   -0.3674651864
      3  C        -3.3911582010   -1.3476891440    0.0162319643
      4  C        -2.2579906815   -0.9736090783   -0.7787514278
      5  C        -0.9803149121   -1.0809978144   -0.1452429549
      6  C         0.2353114058   -0.5244728433   -0.6751561012
      7  H        -6.8365419099   -1.6756925720    0.2049735982
      8  H        -5.5452774726   -2.0851581454    1.5144453007
      9  H        -5.0508008162   -0.9214201427   -1.3645901252
     10  H        -3.1826966971   -1.7358462596    1.0305738012
     11  H        -0.9702468304   -1.5392005232    0.8587764599
     12  C         1.5992648958   -0.5205681462   -0.0767919621
     13  H         0.1676112447   -0.1248689756   -1.7033049071
     14  C         2.1180768583   -1.5818799740    0.7200939059
     15  C         3.5410342258   -1.5564641114    1.2484579141
     16  C         4.5286798159   -0.6676615298    0.4504357968
     17  H         3.9167630456   -2.5998483026    1.3318846488
     18  H         3.4883295659   -1.1952021084    2.3131770406
     19  C         3.8893939502    0.7047139596    0.1677703274
     20  H         4.8142560171   -1.1811565805   -0.4951321074
     21  H         5.4673002866   -0.5413387942    1.0307735139
     22  C         2.5692885554    0.6102483876   -0.6741434444
     23  H         4.6006831386    1.3685401814   -0.3728251304
     24  H         3.6721132792    1.2046942672    1.1438878065
     25  C         1.3354582215   -2.8305136170    1.0758689537
     26  H         0.5193898155   -3.0728592691    0.3667399998
     27  H         0.8959475630   -2.7485592980    2.1031219521
     28  H         2.0165750367   -3.7074431670    1.1233684046
     29  C         2.8780115078    0.2875721167   -2.1752383230
     30  H         3.3573769180   -0.7089430912   -2.2845803465
     31  H         3.5721350286    1.0516213861   -2.5917511737
     32  H         1.9640374789    0.2952937847   -2.8111226856
     33  C         1.8825300016    2.0281876089   -0.5975834976
     34  H         1.7644536993    2.4167516607    0.4666635084
     35  H         0.9358035600    2.1400486144   -1.1947044108
     36  H         2.5496133791    2.8082908563   -1.0333461248
     37  C        -2.3916274703   -0.4384635809   -2.1941336011
     38  H        -3.4111247692   -0.5639096626   -2.6069706619
     39  H        -1.6918411202   -0.9543247743   -2.8900234541
     40  H        -2.1617821892    0.6541002957   -2.2347797191
     41  Fe        0.1777850588    1.0430859115    0.6639196389
     42  O        -1.4768355203    1.7051682634    0.9001016309
     43  O        -2.7537851906    1.3391124304    0.9955143193
   Point Group: c1    Number of degrees of freedom:   123


   Energy is  -2036.329353842


 Translations and Rotations Projected Out of Hessian

120 Hessian modes will be used to form the next step
  Hessian Eigenvalues:
     0.000879    0.001226    0.001904    0.005150    0.005464    0.007019
     0.013040    0.016241    0.017303    0.034167    0.040078    0.043099
     0.059792    0.070528    0.086396    0.099246    0.114412    0.128560
     0.149947    0.176610    0.207210    0.227474    0.277633    0.359891
     0.386680    0.442901    0.563863    0.594169    0.689868    0.966750
     0.999668    0.999938    0.999986    0.999994    0.999997    0.999999
     0.999999    1.000000    1.000000    1.000000    1.000000    1.000000
     1.000000    1.000000    1.000000    1.000000    1.000000    1.000000
     1.000000    1.000000    1.000000    1.000000    1.000000    1.000000
     1.000000    1.000000    1.000000    1.000000    1.000000    1.000000
     1.000000    1.000000    1.000000    1.000000    1.000001    1.000001
     1.000001    1.000001    1.000002    1.000002    1.000003    1.000003
     1.000004    1.000004    1.000006    1.000007    1.000009    1.000012
     1.000017    1.000017    1.000019    1.000030    1.000042    1.000044
     1.000067    1.000075    1.000094    1.000109    1.000126    1.000196
     1.000226    1.000287    1.000322    1.000435    1.000520    1.000582
     1.000608    1.000730    1.001091    1.001399    1.001685    1.002705
     1.003084    1.004169    1.006935    1.008970    1.009718    1.011046
     1.011918    1.013375    1.017800    1.021073    1.043173    1.050391
     1.055186    1.070898    1.172941    1.193673    1.214758    1.829418

 Minimum Search - Taking Simple RFO Step
 Searching for Lamda that Minimizes Along All modes
 Value Taken    Lamda =  -0.00000859
 Step Taken.  Stepsize is  0.028916

                             Maximum     Tolerance    Cnvgd?
         Gradient           0.000414      0.000300      NO
         Displacement       0.013586      0.001200      NO
         Energy change     -0.000006      0.000001      NO

 ----------------------------------------------------------------
             Standard Nuclear Orientation (Angstroms)
    I     Atom           X                Y                Z
 ----------------------------------------------------------------
    1      C      -5.7735203793    -1.7105480414     0.4967414285
    2      C      -4.7701093732    -1.2964995219    -0.3685202609
    3      C      -3.3915098306    -1.3479097699     0.0155396251
    4      C      -2.2577364331    -0.9733551306    -0.7786376577
    5      C      -0.9801957308    -1.0809116104    -0.1447481976
    6      C       0.2352563931    -0.5242122250    -0.6747238135
    7      H      -6.8369208877    -1.6767022876     0.2010653453
    8      H      -5.5471737926    -2.0880655431     1.5116787558
    9      H      -5.0511781070    -0.9197337377    -1.3655595951
   10      H      -3.1827243961    -1.7366544941     1.0298933191
   11      H      -0.9705025517    -1.5386366893     0.8596009182
   12      C       1.5992001308    -0.5203385640    -0.0768433306
   13      H       0.1675180236    -0.1244022928    -1.7028057158
   14      C       2.1182391225    -1.5813892273     0.7203311924
   15      C       3.5413811727    -1.5552421495     1.2489699651
   16      C       4.5289943231    -0.6672807128     0.4498534545
   17      H       3.9172203858    -2.5985856883     1.3343306074
   18      H       3.4873755813    -1.1924103801     2.3132724777
   19      C       3.8894936461     0.7046926438     0.1666460437
   20      H       4.8142328173    -1.1817916169    -0.4953187522
   21      H       5.4673441315    -0.5412693925     1.0304817617
   22      C       2.5693542767     0.6094563537    -0.6753377846
   23      H       4.6007407667     1.3683620558    -0.3738947017
   24      H       3.6723050044     1.2055937188     1.1424283702
   25      C       1.3358085595    -2.8301300308     1.0762547980
   26      H       0.5198181952    -3.0734163209     0.3673444538
   27      H       0.8962004324    -2.7474949119     2.1032016730
   28      H       2.0171474644    -3.7067765892     1.1246631643
   29      C       2.8778342703     0.2858362823    -2.1763639088
   30      H       3.3570772171    -0.7109507741    -2.2849505898
   31      H       3.5717288825     1.0499636414    -2.5933247350
   32      H       1.9631348594     0.2933687948    -2.8112393631
   33      C       1.8826060896     2.0273915416    -0.5987120041
   34      H       1.7639850226     2.4167589050     0.4655016452
   35      H       0.9359853280     2.1388117305    -1.1959629777
   36      H       2.5496363104     2.8072892238    -1.0347549821
   37      C      -2.3912079394    -0.4368136668    -2.1932265081
   38      H      -3.4100758622    -0.5638279159    -2.6063534400
   39      H      -1.6912331122    -0.9504250615    -2.8900547642
   40      H      -2.1634559062     0.6559005313    -2.2316514767
   41      Fe      0.1789873392     1.0424810518     0.6657396323
   42      O      -1.4755723323     1.7043238800     0.9048308320
   43      O      -2.7523076371     1.3382182539     1.0027039284
 ----------------------------------------------------------------
 Molecular Point Group                 C1    NOp =  1
 Largest Abelian Subgroup              C1    NOp =  1
 Nuclear Repulsion Energy =  1873.5644859893 hartrees
 There are       82 alpha and       78 beta electrons


 *******************************************
 **  MAXIMUM OPTIMIZATION CYCLES REACHED  **
 *******************************************

 Q-Chem fatal error occurred in module 0, line  456:

 Maximum optimization cycles reached

