
Running Job 1 of 1 sys_2_car_1_int_opt_vdz_mgga.in
qchem sys_2_car_1_int_opt_vdz_mgga.in_30523.0 /scr/c295_lal/157342/qchem30523/ 1
/usr/software/qchem_511/exe/qcprog.exe_s sys_2_car_1_int_opt_vdz_mgga.in_30523.0 /scr/c295_lal/157342/qchem30523/
Check license passed

                  Welcome to Q-Chem
     A Quantum Leap Into The Future Of Chemistry


 Q-Chem 5.1, Q-Chem, Inc., Pleasanton, CA (2018)

 Yihan Shao,  Zhengting Gan,  E. Epifanovsky,  A. T. B. Gilbert,  M. Wormit,  
 J. Kussmann,  A. W. Lange,  A. Behn,  Jia Deng,  Xintian Feng,  D. Ghosh,  
 M. Goldey,  P. R. Horn,  L. D. Jacobson,  I. Kaliman,  T. Kus,  A. Landau,  
 Jie Liu,  E. I. Proynov,  R. M. Richard,  R. P. Steele,  E. J. Sundstrom,  
 H. L. Woodcock III,  P. M. Zimmerman,  D. Zuev,  B. Albrecht,  E. Alguire,  
 S. A. Baeppler,  D. Barton,  Z. Benda,  Y. A. Bernard,  E. J. Berquist,  
 K. B. Bravaya,  H. Burton,  D. Casanova,  Chun-Min Chang,  Yunqing Chen,  
 A. Chien,  K. D. Closser,  M. P. Coons,  S. Coriani,  S. Dasgupta,  
 A. L. Dempwolff,  M. Diedenhofen,  Hainam Do,  R. G. Edgar,  Po-Tung Fang,  
 S. Faraji,  S. Fatehi,  Qingguo Feng,  K. D. Fenk,  J. Fosso-Tande,  
 Qinghui Ge,  A. Ghysels,  G. Gidofalvi,  J. Gomes,  J. Gonthier,  A. Gunina,  
 D. Hait,  M. W. D. Hanson-Heine,  P. H. P. Harbach,  A. W. Hauser,  
 J. E. Herr,  E. G. Hohenstein,  Z. C. Holden,  Kerwin Hui,  B. C. Huynh,  
 T.-C. Jagau,  Hyunjun Ji,  B. Kaduk,  K. Khistyaev,  Jaehoon Kim,  
 P. Klunzinger,  K. Koh,  D. Kosenkov,  L. Koulias,  T. Kowalczyk,  
 C. M. Krauter,  A. Kunitsa,  Ka Un Lao,  A. Laurent,  K. V. Lawler,  
 Joonho Lee,  D. Lefrancois,  S. Lehtola,  D. S. Levine,  Yi-Pei Li,  
 You-Sheng Lin,  Fenglai Liu,  E. Livshits,  A. Luenser,  P. Manohar,  
 E. Mansoor,  S. F. Manzer,  Shan-Ping Mao,  Yuezhi Mao,  N. Mardirossian,  
 A. V. Marenich,  T. Markovich,  L. A. Martinez-Martinez,  S. A. Maurer,  
 N. J. Mayhall,  S. C. McKenzie,  J.-M. Mewes,  A. F. Morrison,  
 J. W. Mullinax,  K. Nanda,  T. S. Nguyen-Beck,  R. Olivares-Amaya,  
 J. A. Parkhill,  T. M. Perrine,  F. Plasser,  P. Pokhilko,  S. Prager,  
 A. Prociuk,  E. Ramos,  D. R. Rehn,  F. Rob,  M. Schneider,  N. Sergueev,  
 S. M. Sharada,  S. Sharma,  D. W. Small,  T. Stauch,  T. Stein,  
 Yu-Chuan Su,  A. J. W. Thom,  A. Tkatchenko,  T. Tsuchimochi,  N. M. Tubman,  
 L. Vogt,  M. L. Vidal,  O. Vydrov,  M. A. Watson,  J. Wenzel,  
 M. de Wergifosse,  T. A. Wesolowski,  A. White,  J. Witte,  A. Yamada,  
 Jun Yang,  K. Yao,  S. Yeganeh,  S. R. Yost,  Zhi-Qiang You,  A. Zech,  
 Igor Ying Zhang,  Xing Zhang,  Yan Zhao,  Ying Zhu,  B. R. Brooks,  
 G. K. L. Chan,  C. J. Cramer,  M. S. Gordon,  W. J. Hehre,  A. Klamt,  
 M. W. Schmidt,  C. D. Sherrill,  D. G. Truhlar,  A. Aspuru-Guzik,  R. Baer,  
 A. T. Bell,  N. A. Besley,  Jeng-Da Chai,  A. E. DePrince, III,  
 R. A. DiStasio Jr.,  A. Dreuw,  B. D. Dunietz,  T. R. Furlani,  
 Chao-Ping Hsu,  Yousung Jung,  Jing Kong,  D. S. Lambrecht,  WanZhen Liang,  
 C. Ochsenfeld,  V. A. Rassolov,  L. V. Slipchenko,  J. E. Subotnik,  
 T. Van Voorhis,  J. M. Herbert,  A. I. Krylov,  P. M. W. Gill,  M. Head-Gordon

 Contributors to earlier versions of Q-Chem not listed above: 
 R. D. Adamson,  B. Austin,  J. Baker,  G. J. O. Beran,  K. Brandhorst,  
 S. T. Brown,  E. F. C. Byrd,  A. K. Chakraborty,  C.-L. Cheng,  
 Siu Hung Chien,  D. M. Chipman,  D. L. Crittenden,  H. Dachsel,  
 R. J. Doerksen,  A. D. Dutoi,  L. Fusti-Molnar,  W. A. Goddard III,  
 A. Golubeva-Zadorozhnaya,  S. R. Gwaltney,  G. Hawkins,  A. Heyden,  
 S. Hirata,  G. Kedziora,  F. J. Keil,  C. Kelley,  Jihan Kim,  R. A. King,  
 R. Z. Khaliullin,  P. P. Korambath,  W. Kurlancheek,  A. M. Lee,  M. S. Lee,  
 S. V. Levchenko,  Ching Yeh Lin,  D. Liotard,  R. C. Lochan,  I. Lotan,  
 P. E. Maslen,  N. Nair,  D. P. O'Neill,  D. Neuhauser,  E. Neuscamman,  
 C. M. Oana,  R. Olson,  B. Peters,  R. Peverati,  P. A. Pieniazek,  
 Y. M. Rhee,  J. Ritchie,  M. A. Rohrdanz,  E. Rosta,  N. J. Russ,  
 H. F. Schaefer III,  N. E. Schultz,  N. Shenvi,  A. C. Simmonett,  A. Sodt,  
 D. Stuck,  K. S. Thanthiriwatte,  V. Vanovschi,  Tao Wang,  A. Warshel,  
 C. F. Williams,  Q. Wu,  X. Xu,  W. Zhang

 Please cite Q-Chem as follows:
 Y. Shao et al., Mol. Phys. 113, 184-215 (2015)
 DOI: 10.1080/00268976.2014.952696

 Q-Chem 5.1.1 for Intel X86 EM64T Linux

 Parts of Q-Chem use Armadillo 8.300.2 (Tropical Shenanigans).
 http://arma.sourceforge.net/

 Q-Chem begins on Wed Nov 28 09:32:00 2018  

Host: cub-0-17.local
0

     Scratch files written to /scr/c295_lal/157342/qchem30523//
 Aug318 |scratch|qcdevops|jenkins|workspace|build_RNUM -1
Processing $rem in /usr/software/qchem_511/config/preferences.
 MEM_TOTAL  2000 
Input Ideriv = 2
Curr. Ideriv = -1
Max.  Ideriv = 2

Checking the input file for inconsistencies... 	...done.

--------------------------------------------------------------
User input:
--------------------------------------------------------------
$molecule
2 5
Fe        -0.28190       -1.48682        0.36044
O         -0.76259       -3.17269        1.11627
O         -0.26527       -4.06723        0.28017
H          3.87904       -6.67333        3.23846
H          4.03445       -8.13817        2.20877
C          3.37846       -7.27319        2.45130
H          2.43621       -7.67063        2.88494
H          5.26232       -5.16266        2.35549
H          5.12545       -6.83910        0.43190
C          5.07848       -4.85198        1.30684
C          3.09062       -6.43120        1.18629
C          4.42784       -5.97744        0.52717
H          6.05745       -4.57477        0.85935
H         -1.27160       -6.88192        3.13947
H          3.04753       -8.19482       -0.12118
C          2.38707       -7.34365        0.15938
C          2.20682       -5.22422        1.60489
H          4.59672       -2.87420        1.93768
H          1.45539       -7.77867        0.57699
C          4.15731       -3.63999        1.26234
C          0.76076       -5.49460        2.03132
C         -1.81940       -7.02843        2.18552
C          2.72913       -3.95282        1.66251
H         -1.35396       -7.86667        1.62836
H          2.52991       -2.28170        2.99548
H         -2.83983       -7.34199        2.45821
H          4.24075       -5.59130       -0.50109
C          1.96512       -2.74845        2.16251
H          0.98236       -2.97599        2.59634
C         -0.31685       -5.33025        0.91463
H          2.14158       -6.78061       -0.76619
H          4.12526       -3.20323        0.24005
C         -1.73242       -5.76674        1.35090
H          1.85416       -2.00746        1.34483
H         -4.52798       -6.23420        1.91275
C         -2.84001       -5.06759        0.96133
C         -4.25391       -5.38975        1.29760
H         -2.71988       -4.19597        0.32869
C         -5.25442       -4.62831        0.84004
H         -6.28218       -4.87319        1.09022
H         -5.06720       -3.75923        0.21586
H          0.50625       -5.05666        3.01764
H         -0.03465       -6.06647        0.13910
$end

$rem
BASIS = STO-3G
METHOD  = BLYP
JOBTYPE = OPT
MAX_SCF_CYCLES = 500
SCF_ALGORITHM = DIIS_GDM
$end
--------------------------------------------------------------
 ----------------------------------------------------------------
             Standard Nuclear Orientation (Angstroms)
    I     Atom           X                Y                Z
 ----------------------------------------------------------------
    1      Fe     -1.4234664495    -3.0048720721     0.2784442557
    2      O      -1.5785090335    -1.1682928623    -0.2189872726
    3      O      -0.9796839180    -0.5068106969     0.7559188921
    4      H       3.6800155804     1.7539885496    -1.6719463558
    5      H       4.0281058091     3.0011617943    -0.4255266512
    6      C       3.2492748956     2.3079463862    -0.8130945646
    7      H       2.4087890577     2.9217774381    -1.2012082874
    8      H       4.7470173067    -0.0865508051    -1.0017630761
    9      H       4.7994359448     1.2847415872     1.1537397469
   10      C       4.4633569098    -0.5126582107    -0.0179158885
   11      C       2.7639381282     1.3503524746     0.3002389202
   12      C       3.9730553588     0.5801340916     0.9112166658
   13      H       5.3594281911    -1.0177956789     0.4032341346
   14      H      -1.3619855812     2.8312083791    -1.6570150982
   15      H       2.9530643024     2.8815963337     1.8626772669
   16      C       2.1739783442     2.2082320905     1.4395728356
   17      C       1.7121226542     0.3894776171    -0.3190613601
   18      H       3.6888794764    -2.2620859496    -0.9567198207
   19      H       1.3494073836     2.8544611080     1.0733230263
   20      C       3.3515151611    -1.5405408949    -0.1813762578
   21      C       0.3539260289     0.9654426075    -0.7308910210
   22      C      -1.9230620378     2.9271405787    -0.7043552190
   23      C       2.0167513056    -0.9302117510    -0.5603228720
   24      H      -1.3515550327     3.5806047696    -0.0143753271
   25      H       1.6057041733    -2.3257914366    -2.1391000190
   26      H      -2.8623362752     3.4489449371    -0.9481609062
   27      H       3.6745680007     0.0841235298     1.8632167787
   28      C       1.0872702866    -1.8971609913    -1.2569523137
   29      H       0.1785046212    -1.4417612890    -1.6723511756
   30      C      -0.7887039850     0.8259782579     0.3227679074
   31      H       1.7933794926     1.5652390197     2.2615604460
   32      H       3.1975310797    -2.1117138761     0.7603846845
   33      C      -2.0886364997     1.5598981189    -0.0724922001
   34      H       0.8146231434    -2.7206794638    -0.5659676937
   35      H      -4.7362629181     2.5806928585    -0.6178383619
   36      C      -3.3150219853     1.0124899187     0.1798052802
   37      C      -4.6372535344     1.6199781121    -0.1342641609
   38      H      -3.3729913343     0.0492895334     0.6730299585
   39      C      -5.7718903848     0.9833665364     0.1779812662
   40      H      -6.7309501819     1.4362213829    -0.0543410485
   41      H      -5.7629594986     0.0123158970     0.6647388467
   42      H       0.0777855258     0.7289477914    -1.7783692072
   43      H      -0.4252508433     1.3793762842     1.2086324274
 ----------------------------------------------------------------
 Molecular Point Group                 C1    NOp =  1
 Largest Abelian Subgroup              C1    NOp =  1
 Nuclear Repulsion Energy =  1787.7887190091 hartrees
 There are       82 alpha and       78 beta electrons
 Requested basis set is STO-3G
 There are 65 shells and 132 basis functions

 Total QAlloc Memory Limit   2000 MB
 Mega-Array Size       188 MB
 MEM_STATIC part       192 MB
 A cutoff of  1.0D-12 yielded   1647 shell pairs
 There are      7431 function pairs (      7532 Cartesian)
 
 -------------------------------------------------------
 OpenMP Integral Computing Module                       
 Release: version 1.0, May 2013, Q-Chem Inc. Pittsburgh 
 -------------------------------------------------------
 Integral Job Info:
 Integral job number is                      11
 Integral operator is                         1
 short-range coefficients                     0
 long-range coefficients              100000000
 Omega coefficients                           0
 if combine SR and LR in K                    0
 Integral screening is                        0
 Integral computing path is                   2
 max size of driver memory is            800000
 size of driver memory is                593474
 size of scratch memory is             10861360
 max col of scratch BK array               1296
 max len of scratch array in speh3          155
 max len of scratch index in speh4           18
 max int batch size is                      520
 min int batch size is                       52
 fixed nKL is                                52
 max L of basis functions is                  2
 order of int derivative is                   0
 number of shells is                         65
 number of basis is                         133
 number of cartesian basis is               133
 number of contracted shell pairs          1647
 number of primitive shell pairs           8849
 maxK2 (contraction) of shell pair            9
 max number of K2 of shell pair               1
 max number of CS2 of shell pair            225
 max number of PS2 of shell pair           1050
 mem total for path MDJ                  535438
 -------------------------------------------------------
 Smallest overlap matrix eigenvalue = 1.87E-01

 Scale SEOQF with 1.000000e-02/1.000000e-01/1.000000e-01

 Standard Electronic Orientation quadrupole field applied
 Nucleus-field energy     =     0.0000000366 hartrees
 Guess from superposition of atomic densities
 Warning:  Energy on first SCF cycle will be non-variational
 SAD guess density has 162.000000 electrons

 -----------------------------------------------------------------------
  General SCF calculation program by
  Eric Jon Sundstrom, Paul Horn, Yuezhi Mao, Dmitri Zuev, Alec White,
  David Stuck, Shaama M.S., Shane Yost, Joonho Lee, David Small,
  Daniel Levine, Susi Lehtola, Hugh Burton, Evgeny Epifanovsky
 -----------------------------------------------------------------------
 Exchange:  B88      Correlation:  LYP
 Using SG-1 standard quadrature grid
 using 12 threads for integral computing
 -------------------------------------------------------
 OpenMP Integral computing Module                
 Release: version 1.0, May 2013, Q-Chem Inc. Pittsburgh 
 -------------------------------------------------------
 -------------------------------------------------------
 OpenMP BLAS3 based DFT computing Module                
 Release: version 1.0, May 2013, Q-Chem Inc. Pittsburgh 
 -------------------------------------------------------
 A unrestricted SCF calculation will be
 performed using DIIS, GDM
 SCF converges when RMS gradient is below 1.0e-08
 ---------------------------------------
  Cycle       Energy         DIIS error
 ---------------------------------------
    1   -2012.2664519928      4.02e-02  
    2   -2012.2775640446      1.03e-02  
    3   -1988.2967315497      2.63e-02  
    4   -1990.8969729135      2.02e-02  
    5   -2001.4063905634      1.52e-02  
    6   -1999.5848669554      1.45e-02  
    7   -2012.2677435268      8.00e-03  Done DIIS. Switching to GDM
 ---------------------------------------
  Cycle       Energy        RMS Gradient
 ---------------------------------------
    1   -2012.2677435268      7.57e-01   Descent step
    2   -2012.8143465604      1.21e+00   Descent step
    3   -2013.2091134585      6.05e-01   Descent step
    4   -2013.4512504367      1.92e-01   Descent step
    5   -2013.3764477137      7.39e-01  Line search: overstep
    6   -2013.5026605324      1.99e-01   Descent step
    7   -2013.5198914287      9.86e-01   Descent step
    8   -2013.5170765338      6.72e-01  Line search: overstep
    9   -2013.6488675059      1.93e-01   Descent step
   10   -2013.7357852567      1.14e-01   Descent step
   11   -2013.6845474619      2.80e-01  Line search: overstep
   12   -2013.7541969864      1.04e-01   Normal BFGS step
   13   -2013.7427848656      2.01e-01  Line search: overstep
   14   -2013.7681949375      5.31e-02   Dog-leg BFGS step
   15   -2013.7711240300      1.60e-01   Normal BFGS step
   16   -2013.7948436322      1.20e-01   Normal BFGS step
   17   -2013.8020614832      7.04e-02   Normal BFGS step
   18   -2013.8134307978      5.66e-02   Normal BFGS step
   19   -2013.8079833198      1.61e-01  Line search: overstep
   20   -2013.8165204594      2.22e-02   Normal BFGS step
   21   -2013.8166694976      3.33e-02   Normal BFGS step
   22   -2013.8186720608      3.01e-02   Normal BFGS step
   23   -2013.8195096890      2.44e-02   Normal BFGS step
   24   -2013.8207853619      1.38e-02   Normal BFGS step
   25   -2013.8210146025      3.03e-02   Normal BFGS step
   26   -2013.8219866343      1.60e-02   Normal BFGS step
   27   -2013.8219680040      1.91e-02  Line search: overstep
   28   -2013.8221384595      7.81e-03   Normal BFGS step
   29   -2013.8223149459      5.96e-03   Normal BFGS step
   30   -2013.8224352914      5.62e-03   Normal BFGS step
   31   -2013.8225184248      4.14e-03   Normal BFGS step
   32   -2013.8225836969      2.81e-03   Normal BFGS step
   33   -2013.8226052157      3.10e-03   Normal BFGS step
   34   -2013.8226257034      1.51e-03   Normal BFGS step
   35   -2013.8226276034      9.45e-04   Normal BFGS step
   36   -2013.8226347796      7.20e-04   Normal BFGS step
   37   -2013.8226344403      8.36e-04  Line search: overstep
   38   -2013.8226356712      3.82e-04   Normal BFGS step
   39   -2013.8226357891      1.88e-04   Normal BFGS step
   40   -2013.8226360207      2.73e-04   Normal BFGS step
   41   -2013.8226361159      1.29e-04   Normal BFGS step
   42   -2013.8226361617      4.39e-05   Normal BFGS step
   43   -2013.8226361751      5.40e-05   Normal BFGS step
   44   -2013.8226361750      3.83e-05   Normal BFGS step
   45   -2013.8226361796      1.67e-05   Normal BFGS step
   46   -2013.8226361791      2.54e-05   Normal BFGS step
   47   -2013.8226361803      5.47e-06   Normal BFGS step
   48   -2013.8226361803      1.07e-05   Normal BFGS step
   49   -2013.8226361804      6.45e-06   Normal BFGS step
   50   -2013.8226361804      8.05e-06   Normal BFGS step
   51   -2013.8226361804      6.68e-07   Normal BFGS step
   52   -2013.8226361804      1.49e-06   Normal BFGS step
   53   -2013.8226361804      4.01e-07   Normal BFGS step
   54   -2013.8226361804      4.22e-07   Normal BFGS step
   55   -2013.8226361804      6.95e-08   Normal BFGS step
   56   -2013.8226361804      1.19e-07   Normal BFGS step
   57   -2013.8226361804      3.01e-08   Normal BFGS step
   58   -2013.8226361804      4.77e-08   Normal BFGS step
   59   -2013.8226361804      8.76e-09  Convergence criterion met
 ---------------------------------------
 SCF time:   CPU 572.61s  wall 48.00s 
<S^2> =          7.471458861
 SCF   energy in the final basis set =    -2013.8226361804
 Total energy in the final basis set =    -2013.8226361804
 
 --------------------------------------------------------------
 
                    Orbital Energies (a.u.)
 --------------------------------------------------------------
 
 Alpha MOs
 -- Occupied --
******* -29.675 -26.229 -26.229 -26.224 -19.054 -18.956 -10.165
-10.097 -10.090 -10.073 -10.068 -10.063 -10.051 -10.050 -10.039
-10.033 -10.031 -10.014  -9.976  -9.974  -9.973  -9.972  -3.873
 -2.714  -2.713  -2.700  -1.394  -1.099  -1.009  -0.994  -0.949
 -0.934  -0.923  -0.884  -0.864  -0.860  -0.822  -0.802  -0.800
 -0.771  -0.738  -0.735  -0.723  -0.720  -0.709  -0.687  -0.669
 -0.652  -0.643  -0.637  -0.626  -0.618  -0.605  -0.598  -0.590
 -0.585  -0.582  -0.575  -0.570  -0.560  -0.558  -0.555  -0.548
 -0.543  -0.542  -0.539  -0.538  -0.534  -0.532  -0.521  -0.506
 -0.506  -0.498  -0.494  -0.484  -0.465  -0.460  -0.451  -0.445
 -0.425  -0.420
 -- Virtual --
 -0.415  -0.411  -0.318  -0.290  -0.258  -0.219  -0.179  -0.148
 -0.118  -0.068  -0.043  -0.008   0.009   0.026   0.041   0.055
  0.069   0.074   0.076   0.080   0.090   0.094   0.102   0.121
  0.122   0.128   0.134   0.134   0.136   0.140   0.152   0.162
  0.168   0.173   0.180   0.187   0.200   0.202   0.206   0.220
  0.225   0.237   0.239   0.259   0.266   0.267   0.274   0.343
  0.348   0.388
 
 Beta MOs
 -- Occupied --
******* -29.634 -26.195 -26.195 -26.191 -19.057 -18.960 -10.166
-10.093 -10.088 -10.075 -10.068 -10.064 -10.051 -10.051 -10.042
-10.033 -10.030 -10.014  -9.976  -9.974  -9.974  -9.972  -3.652
 -2.490  -2.489  -2.486  -1.406  -1.109  -1.011  -1.001  -0.950
 -0.935  -0.922  -0.885  -0.867  -0.863  -0.820  -0.802  -0.800
 -0.775  -0.740  -0.737  -0.724  -0.721  -0.713  -0.694  -0.670
 -0.653  -0.644  -0.638  -0.628  -0.619  -0.613  -0.599  -0.593
 -0.588  -0.583  -0.575  -0.570  -0.561  -0.559  -0.555  -0.542
 -0.540  -0.522  -0.518  -0.507  -0.505  -0.497  -0.495  -0.463
 -0.461  -0.455  -0.449  -0.446  -0.437  -0.431
 -- Virtual --
 -0.362  -0.326  -0.325  -0.321  -0.318  -0.317  -0.311  -0.286
 -0.277  -0.233  -0.175  -0.162  -0.115  -0.067  -0.043  -0.001
  0.011   0.029   0.040   0.056   0.067   0.072   0.076   0.080
  0.090   0.092   0.104   0.120   0.121   0.127   0.130   0.132
  0.135   0.140   0.151   0.161   0.168   0.173   0.180   0.186
  0.199   0.201   0.206   0.220   0.225   0.234   0.238   0.259
  0.262   0.266   0.274   0.339   0.344   0.383
 --------------------------------------------------------------
 
          Ground-State Mulliken Net Atomic Charges

     Atom                 Charge (a.u.)    Spin (a.u.)
  --------------------------------------------------------
      1 Fe                    0.607952       4.790358
      2 O                    -0.111634      -0.320966
      3 O                     0.003148      -0.211807
      4 H                     0.092724       0.001537
      5 H                     0.114163      -0.003798
      6 C                    -0.207652      -0.027053
      7 H                     0.082993      -0.000383
      8 H                     0.091608      -0.000648
      9 H                     0.106818       0.001328
     10 C                    -0.130615      -0.001786
     11 C                     0.027814       0.007031
     12 C                    -0.127935      -0.002562
     13 H                     0.110785      -0.000876
     14 H                     0.119481      -0.014480
     15 H                     0.112340       0.000192
     16 C                    -0.211133      -0.001305
     17 C                     0.021502      -0.149305
     18 H                     0.124623      -0.009885
     19 H                     0.068756      -0.001007
     20 C                    -0.137070       0.004784
     21 C                     0.018867       0.709126
     22 C                    -0.224728       0.006021
     23 C                     0.063920      -0.159163
     24 H                     0.125524      -0.012160
     25 H                     0.144892      -0.007217
     26 H                     0.128200      -0.000387
     27 H                     0.081676      -0.000674
     28 C                    -0.228445       0.012767
     29 H                     0.088074      -0.001148
     30 C                     0.023165      -0.020568
     31 H                     0.078781      -0.001759
     32 H                     0.115917      -0.018358
     33 C                     0.060372      -0.217124
     34 H                     0.095730      -0.009844
     35 H                     0.136870       0.001975
     36 C                    -0.039878      -0.066972
     37 C                    -0.037056      -0.052616
     38 H                     0.105205       0.002379
     39 C                    -0.067188      -0.227471
     40 H                     0.155101       0.009298
     41 H                     0.129712       0.009154
     42 H                     0.126698      -0.020409
     43 H                     0.159925       0.005782
  --------------------------------------------------------
  Sum of atomic charges =     2.000000
  Sum of spin   charges =     4.000000

 -----------------------------------------------------------------
                    Cartesian Multipole Moments
 -----------------------------------------------------------------
    Charge (ESU x 10^10)
                 9.6064
    Dipole Moment (Debye)
         X      -7.3083      Y      -0.8853      Z      -0.9370
       Tot       7.4211
    Quadrupole Moments (Debye-Ang)
        XX     -23.2524     XY      -7.0479     YY     -76.5085
        XZ      -1.2712     YZ      -0.2308     ZZ    -109.6395
    Octopole Moments (Debye-Ang^2)
       XXX    -246.2426    XXY      50.0156    XYY     -43.9223
       YYY     -35.6245    XXZ       6.0769    XYZ      16.5460
       YYZ      -9.2442    XZZ      -0.5539    YZZ     -14.7456
       ZZZ      -1.1721
    Hexadecapole Moments (Debye-Ang^3)
      XXXX   -3512.4506   XXXY    -302.9522   XXYY   -1089.6286
      XYYY      38.7471   YYYY   -2338.2335   XXXZ       2.9582
      XXYZ     -20.5817   XYYZ      24.7834   YYYZ      -4.8660
      XXZZ   -1029.3239   XYZZ      14.9481   YYZZ    -475.7398
      XZZZ      -9.1841   YZZZ      -0.8234   ZZZZ    -465.9429
 -----------------------------------------------------------------
 Calculating analytic gradient of the SCF energy
 Gradient of SCF Energy
            1           2           3           4           5           6
    1   0.0097363   0.0798309  -0.0551020  -0.0007790   0.0015567  -0.0066922
    2  -0.0026840   0.1023664  -0.0129167  -0.0004674   0.0033776  -0.0168804
    3   0.0015851   0.1057880  -0.1317948  -0.0000315  -0.0025667   0.0314138
            7           8           9          10          11          12
    1   0.0003337  -0.0009682   0.0037550  -0.0267772  -0.0033948  -0.0094260
    2   0.0004278   0.0020948  -0.0020825   0.0017005   0.0009705  -0.0014907
    3  -0.0009121   0.0018848   0.0015540   0.0082991  -0.0249642  -0.0233728
           13          14          15          16          17          18
    1  -0.0001871  -0.0068387   0.0012831   0.0168921   0.0168825   0.0083338
    2  -0.0011366  -0.0012172   0.0037411  -0.0154973  -0.0448515   0.0074223
    3   0.0002347   0.0019983   0.0025316  -0.0183500   0.0051042   0.0018009
           19          20          21          22          23          24
    1   0.0009724  -0.0061537  -0.0273010  -0.0095591  -0.0114496  -0.0052240
    2  -0.0005304   0.0147314   0.0406845  -0.0110555   0.0185972  -0.0039881
    3  -0.0008468   0.0035861  -0.0012562   0.0033872   0.0213518   0.0005544
           25          26          27          28          29          30
    1  -0.0051019   0.0065436   0.0018504   0.0022172   0.0082995  -0.0153339
    2   0.0089508   0.0035663  -0.0059631  -0.0011259  -0.0059597  -0.1042701
    3  -0.0021028  -0.0030496  -0.0011393   0.0214266  -0.0022414   0.0117300
           31          32          33          34          35          36
    1  -0.0005040  -0.0018941  -0.0001894  -0.0014968  -0.0070293   0.0407356
    2  -0.0018571   0.0055736  -0.0098159   0.0113963  -0.0215791  -0.0052546
    3  -0.0003399  -0.0045938   0.0159968  -0.0013806   0.0114047   0.0025698
           37          38          39          40          41          42
    1  -0.0569373   0.0022666   0.0344217   0.0194152   0.0035740   0.0062922
    2  -0.0040514   0.0183604   0.0219945  -0.0055624   0.0170068  -0.0028531
    3   0.0020097  -0.0099918  -0.0107783   0.0025013  -0.0085756   0.0080044
           43
    1  -0.0068530
    2   0.0001281
    3  -0.0184292
 Max gradient component =       1.318E-01
 RMS gradient           =       2.508E-02
 Gradient time:  CPU 27.53 s  wall 2.43 s
 Geometry Optimization Parameters
   NAtoms,    NIC,     NZ,  NCons,   NDum,   NFix, NCnnct, MaxDiis
       43     311       0       0       0       0       0       0


** GEOMETRY OPTIMIZATION IN DELOCALIZED INTERNAL COORDINATES **
   Searching for a Minimum

   Optimization Cycle:   1

                       Coordinates (Angstroms)
     ATOM                X               Y               Z
      1  Fe       -1.4234664495   -3.0048720721    0.2784442557
      2  O        -1.5785090335   -1.1682928623   -0.2189872726
      3  O        -0.9796839180   -0.5068106969    0.7559188921
      4  H         3.6800155804    1.7539885496   -1.6719463558
      5  H         4.0281058091    3.0011617943   -0.4255266512
      6  C         3.2492748956    2.3079463862   -0.8130945646
      7  H         2.4087890577    2.9217774381   -1.2012082874
      8  H         4.7470173067   -0.0865508051   -1.0017630761
      9  H         4.7994359448    1.2847415872    1.1537397469
     10  C         4.4633569098   -0.5126582107   -0.0179158885
     11  C         2.7639381282    1.3503524746    0.3002389202
     12  C         3.9730553588    0.5801340916    0.9112166658
     13  H         5.3594281911   -1.0177956789    0.4032341346
     14  H        -1.3619855812    2.8312083791   -1.6570150982
     15  H         2.9530643024    2.8815963337    1.8626772669
     16  C         2.1739783442    2.2082320905    1.4395728356
     17  C         1.7121226542    0.3894776171   -0.3190613601
     18  H         3.6888794764   -2.2620859496   -0.9567198207
     19  H         1.3494073836    2.8544611080    1.0733230263
     20  C         3.3515151611   -1.5405408949   -0.1813762578
     21  C         0.3539260289    0.9654426075   -0.7308910210
     22  C        -1.9230620378    2.9271405787   -0.7043552190
     23  C         2.0167513056   -0.9302117510   -0.5603228720
     24  H        -1.3515550327    3.5806047696   -0.0143753271
     25  H         1.6057041733   -2.3257914366   -2.1391000190
     26  H        -2.8623362752    3.4489449371   -0.9481609062
     27  H         3.6745680007    0.0841235298    1.8632167787
     28  C         1.0872702866   -1.8971609913   -1.2569523137
     29  H         0.1785046212   -1.4417612890   -1.6723511756
     30  C        -0.7887039850    0.8259782579    0.3227679074
     31  H         1.7933794926    1.5652390197    2.2615604460
     32  H         3.1975310797   -2.1117138761    0.7603846845
     33  C        -2.0886364997    1.5598981189   -0.0724922001
     34  H         0.8146231434   -2.7206794638   -0.5659676937
     35  H        -4.7362629181    2.5806928585   -0.6178383619
     36  C        -3.3150219853    1.0124899187    0.1798052802
     37  C        -4.6372535344    1.6199781121   -0.1342641609
     38  H        -3.3729913343    0.0492895334    0.6730299585
     39  C        -5.7718903848    0.9833665364    0.1779812662
     40  H        -6.7309501819    1.4362213829   -0.0543410485
     41  H        -5.7629594986    0.0123158970    0.6647388467
     42  H         0.0777855258    0.7289477914   -1.7783692072
     43  H        -0.4252508433    1.3793762842    1.2086324274
   Point Group: c1    Number of degrees of freedom:   123


   Energy is  -2013.822636180


 Attempting to Generate Delocalized Internal Coordinates

123 Hessian modes will be used to form the next step
  Hessian Eigenvalues:
     0.002000    0.003011    0.003326    0.003437    0.004056    0.004988
     0.007160    0.007676    0.008504    0.009625    0.010685    0.010746
     0.011124    0.013746    0.014429    0.015170    0.019119    0.019479
     0.020067    0.026838    0.030612    0.030612    0.030892    0.032161
     0.043493    0.045253    0.046128    0.049842    0.053358    0.054092
     0.054158    0.054536    0.055047    0.056078    0.060676    0.064826
     0.068179    0.068409    0.068885    0.074328    0.075153    0.076770
     0.077896    0.082198    0.082353    0.095178    0.097631    0.120238
     0.131639    0.132671    0.159692    0.159984    0.160000    0.160000
     0.160000    0.160000    0.160000    0.160000    0.160000    0.160000
     0.160000    0.160000    0.160000    0.160000    0.160000    0.160000
     0.160000    0.185113    0.191143    0.198439    0.214084    0.220000
     0.220006    0.226220    0.227013    0.249423    0.249816    0.249883
     0.249896    0.250000    0.250000    0.262964    0.267751    0.270134
     0.279400    0.281462    0.282196    0.291371    0.292690    0.297694
     0.302095    0.308276    0.312139    0.321601    0.322543    0.323115
     0.323519    0.323741    0.324338    0.324397    0.325115    0.325173
     0.326206    0.326253    0.326677    0.326988    0.327011    0.327014
     0.327144    0.327295    0.330337    0.334841    0.336016    0.338943
     0.352489    0.353088    0.355520    0.359820    0.433209    0.482060
     0.516545    0.576616    0.615377

 Minimum Search - Taking Simple RFO Step
 Searching for Lamda that Minimizes Along All modes
 Value Taken    Lamda =  -0.15871740
 Calculated Step too Large.  Step scaled by  0.445990
 Step Taken.  Stepsize is  0.300000

                             Maximum     Tolerance    Cnvgd?
         Gradient           0.092987      0.000300      NO
         Displacement       0.133643      0.001200      NO
         Energy change     *********      0.000001      NO


 New Cartesian Coordinates Obtained by Inverse Iteration

 Displacement from previous Coordinates is:  2.683977
 ----------------------------------------------------------------
             Standard Nuclear Orientation (Angstroms)
    I     Atom           X                Y                Z
 ----------------------------------------------------------------
    1      Fe     -1.9711699177    -3.0549200670     0.6562567840
    2      O      -1.8604480500    -1.2789482363    -0.0281579175
    3      O      -1.1556018119    -0.5605057443     0.9062079208
    4      H       3.5734410849     1.8635053629    -1.6695443028
    5      H       3.8402051411     3.0961962206    -0.3887607382
    6      C       3.1134858593     2.3570611865    -0.7892456649
    7      H       2.2197045419     2.9111617404    -1.1465124264
    8      H       4.8045372480     0.0756930292    -1.0594802104
    9      H       4.7748374180     1.3964883263     1.1437129947
   10      C       4.5718158932    -0.4005557221    -0.0846883854
   11      C       2.7225967048     1.3264323348     0.3187686360
   12      C       4.0065482046     0.6328050734     0.8932254262
   13      H       5.5122919621    -0.8441814330     0.3073329495
   14      H      -1.2462310253     2.7061081965    -1.6882321877
   15      H       2.8043214519     2.8290528282     1.9276360804
   16      C       2.0737613334     2.1095471350     1.4992579575
   17      C       1.7319572396     0.2982960838    -0.3188265636
   18      H       3.9055160383    -2.1903863630    -1.0800032874
   19      H       1.1943387673     2.6978720031     1.1631462390
   20      C       3.5340553957    -1.5186150298    -0.2736573490
   21      C       0.3377696493     0.8227082343    -0.6745323290
   22      C      -1.8196761243     2.8781966654    -0.7508983801
   23      C       2.1400253303    -1.0001801979    -0.6180574990
   24      H      -1.2151386191     3.5274822864    -0.0817678223
   25      H       1.8364598989    -2.3784550907    -2.2489050256
   26      H      -2.7265839847     3.4410319425    -1.0303295154
   27      H       3.7591368647     0.0951974956     1.8365653242
   28      C       1.2864595842    -2.0229418759    -1.3509652275
   29      H       0.3339975715    -1.6279060852    -1.7400972218
   30      C      -0.8321163766     0.7565292916     0.3880390613
   31      H       1.7580160370     1.4190929919     2.3094778325
   32      H       3.4406578174    -2.1358676869     0.6505768122
   33      C      -2.0929128398     1.5482942181    -0.0619337456
   34      H       1.0939897654    -2.9000489451    -0.6927202749
   35      H      -4.6562912310     2.7004387439    -0.6994585808
   36      C      -3.3665107369     1.0801072104     0.1978378685
   37      C      -4.6401989332     1.7496189681    -0.1649748836
   38      H      -3.4920152404     0.1378241939     0.7379395379
   39      C      -5.8386257194     1.1949083500     0.1599687592
   40      H      -6.7717289039     1.6996452549    -0.1111782200
   41      H      -5.9060376621     0.2420716078     0.6953794994
   42      H       0.0504773780     0.5960411563    -1.7255658948
   43      H      -0.4382083359     1.3223063508     1.2632511510
 ----------------------------------------------------------------
 Molecular Point Group                 C1    NOp =  1
 Largest Abelian Subgroup              C1    NOp =  1
 Nuclear Repulsion Energy =  1745.1580138690 hartrees
 There are       82 alpha and       78 beta electrons
 Applying Cartesian multipole field
    Component          Value
    ---------          -----
     (2,0,0)        1.00000E-12
     (0,2,0)        2.00000E-11
     (0,0,2)       -3.00000E-11
 Nucleus-field energy     =     0.0000000363 hartrees
 Requested basis set is STO-3G
 There are 65 shells and 132 basis functions
 A cutoff of  1.0D-12 yielded   1628 shell pairs
 There are      7313 function pairs (      7408 Cartesian)
 Smallest overlap matrix eigenvalue = 1.96E-01
 Guess MOs from SCF MO coefficient file

 -----------------------------------------------------------------------
  General SCF calculation program by
  Eric Jon Sundstrom, Paul Horn, Yuezhi Mao, Dmitri Zuev, Alec White,
  David Stuck, Shaama M.S., Shane Yost, Joonho Lee, David Small,
  Daniel Levine, Susi Lehtola, Hugh Burton, Evgeny Epifanovsky
 -----------------------------------------------------------------------
 Exchange:  B88      Correlation:  LYP
 Using SG-1 standard quadrature grid
 using 12 threads for integral computing
 -------------------------------------------------------
 OpenMP Integral computing Module                
 Release: version 1.0, May 2013, Q-Chem Inc. Pittsburgh 
 -------------------------------------------------------
 -------------------------------------------------------
 OpenMP BLAS3 based DFT computing Module                
 Release: version 1.0, May 2013, Q-Chem Inc. Pittsburgh 
 -------------------------------------------------------
 A unrestricted SCF calculation will be
 performed using DIIS, GDM
 SCF converges when RMS gradient is below 1.0e-08
 ---------------------------------------
  Cycle       Energy         DIIS error
 ---------------------------------------
    1   -2013.8175180004      1.35e-03  
    2   -2013.8602424471      6.27e-04  Done DIIS. Switching to GDM
 ---------------------------------------
  Cycle       Energy        RMS Gradient
 ---------------------------------------
    1   -2013.8602424471      1.11e-01   Normal BFGS step
    2   -2013.8030073162      2.88e-01  Line search: overstep
    3   -2013.8673194451      3.52e-02   Normal BFGS step
    4   -2013.8643408460      5.63e-02  Line search: overstep
    5   -2013.8681380042      1.19e-02   Normal BFGS step
    6   -2013.8679620257      2.12e-02  Line search: overstep
    7   -2013.8683247444      7.32e-03   Normal BFGS step
    8   -2013.8683373237      8.28e-03   Normal BFGS step
    9   -2013.8684350721      7.56e-03   Normal BFGS step
   10   -2013.8684307447      6.76e-03  Line search: overstep
   11   -2013.8684834705      2.47e-03   Normal BFGS step
   12   -2013.8684888019      1.59e-03   Normal BFGS step
   13   -2013.8684984950      6.99e-04   Normal BFGS step
   14   -2013.8684972664      1.55e-03  Line search: overstep
   15   -2013.8685001542      5.28e-04   Normal BFGS step
   16   -2013.8685009041      3.36e-04   Normal BFGS step
   17   -2013.8685010834      4.01e-04   Normal BFGS step
   18   -2013.8685014902      1.08e-04   Normal BFGS step
   19   -2013.8685015247      4.73e-05   Normal BFGS step
   20   -2013.8685015423      2.81e-05   Normal BFGS step
   21   -2013.8685015455      2.19e-05   Normal BFGS step
   22   -2013.8685015463      2.25e-05   Normal BFGS step
   23   -2013.8685015474      1.26e-05   Normal BFGS step
   24   -2013.8685015478      6.92e-06   Normal BFGS step
   25   -2013.8685015480      4.11e-06   Normal BFGS step
   26   -2013.8685015481      3.94e-06   Normal BFGS step
   27   -2013.8685015481      5.82e-06   Normal BFGS step
   28   -2013.8685015481      8.28e-06   Normal BFGS step
   29   -2013.8685015481      2.70e-06   Normal BFGS step
   30   -2013.8685015481      4.22e-06   Normal BFGS step
   31   -2013.8685015481      1.09e-06   Normal BFGS step
   32   -2013.8685015481      1.57e-06   Normal BFGS step
   33   -2013.8685015481      3.25e-07   Normal BFGS step
   34   -2013.8685015481      3.50e-07   Normal BFGS step
   35   -2013.8685015481      4.96e-08   Normal BFGS step
   36   -2013.8685015481      8.19e-08   Normal BFGS step
   37   -2013.8685015481      3.50e-08   Normal BFGS step
   38   -2013.8685015481      7.26e-08   Normal BFGS step
   39   -2013.8685015481      1.04e-08   Normal BFGS step
   40   -2013.8685015481      1.31e-08   Normal BFGS step
   41   -2013.8685015481      4.94e-09  Convergence criterion met
 ---------------------------------------
 SCF time:   CPU 349.86s  wall 29.00s 
<S^2> =          7.372170974
 SCF   energy in the final basis set =    -2013.8685015481
 Total energy in the final basis set =    -2013.8685015481
 
 --------------------------------------------------------------
 
                    Orbital Energies (a.u.)
 --------------------------------------------------------------
 
 Alpha MOs
 -- Occupied --
******* -29.667 -26.221 -26.220 -26.215 -19.024 -18.940 -10.155
-10.095 -10.084 -10.073 -10.063 -10.061 -10.047 -10.036 -10.030
-10.030 -10.028 -10.011  -9.975  -9.972  -9.971  -9.970  -3.865
 -2.706  -2.704  -2.692  -1.341  -1.082  -0.997  -0.984  -0.941
 -0.921  -0.913  -0.874  -0.854  -0.849  -0.812  -0.799  -0.795
 -0.760  -0.730  -0.720  -0.717  -0.706  -0.695  -0.669  -0.657
 -0.637  -0.629  -0.620  -0.612  -0.603  -0.595  -0.584  -0.582
 -0.577  -0.574  -0.569  -0.560  -0.555  -0.552  -0.550  -0.542
 -0.535  -0.535  -0.532  -0.532  -0.527  -0.524  -0.520  -0.503
 -0.500  -0.494  -0.493  -0.480  -0.461  -0.458  -0.448  -0.439
 -0.421  -0.415
 -- Virtual --
 -0.408  -0.402  -0.313  -0.291  -0.258  -0.219  -0.193  -0.148
 -0.132  -0.077  -0.049  -0.014   0.008   0.029   0.046   0.055
  0.066   0.074   0.074   0.079   0.086   0.093   0.098   0.119
  0.122   0.129   0.130   0.133   0.134   0.137   0.155   0.159
  0.166   0.172   0.179   0.187   0.198   0.202   0.203   0.219
  0.225   0.231   0.236   0.253   0.257   0.264   0.266   0.328
  0.334   0.373
 
 Beta MOs
 -- Occupied --
******* -29.625 -26.187 -26.186 -26.183 -19.026 -18.944 -10.155
-10.087 -10.086 -10.075 -10.063 -10.063 -10.047 -10.039 -10.030
-10.030 -10.027 -10.011  -9.975  -9.972  -9.971  -9.970  -3.644
 -2.482  -2.481  -2.479  -1.351  -1.091  -0.999  -0.990  -0.942
 -0.923  -0.911  -0.875  -0.856  -0.851  -0.810  -0.799  -0.794
 -0.763  -0.731  -0.721  -0.718  -0.708  -0.697  -0.673  -0.658
 -0.639  -0.631  -0.621  -0.613  -0.605  -0.602  -0.587  -0.585
 -0.580  -0.577  -0.569  -0.560  -0.556  -0.553  -0.550  -0.538
 -0.533  -0.521  -0.511  -0.504  -0.498  -0.494  -0.492  -0.459
 -0.458  -0.448  -0.444  -0.438  -0.434  -0.428
 -- Virtual --
 -0.361  -0.317  -0.317  -0.314  -0.312  -0.309  -0.306  -0.286
 -0.277  -0.236  -0.192  -0.162  -0.123  -0.075  -0.048  -0.009
  0.008   0.030   0.046   0.055   0.063   0.072   0.073   0.078
  0.086   0.092   0.100   0.115   0.120   0.127   0.128   0.132
  0.134   0.136   0.154   0.159   0.166   0.171   0.179   0.186
  0.198   0.201   0.202   0.219   0.225   0.228   0.235   0.249
  0.257   0.264   0.266   0.324   0.330   0.369
 --------------------------------------------------------------
 
          Ground-State Mulliken Net Atomic Charges

     Atom                 Charge (a.u.)    Spin (a.u.)
  --------------------------------------------------------
      1 Fe                    0.607626       4.787579
      2 O                    -0.110769      -0.276232
      3 O                     0.000859      -0.182553
      4 H                     0.093465       0.001477
      5 H                     0.113171      -0.003296
      6 C                    -0.208213      -0.025627
      7 H                     0.080650      -0.000264
      8 H                     0.090932      -0.000508
      9 H                     0.105552       0.001721
     10 C                    -0.130094      -0.002039
     11 C                     0.029006       0.010079
     12 C                    -0.128671      -0.000864
     13 H                     0.110214      -0.000695
     14 H                     0.117018      -0.013817
     15 H                     0.111937       0.000275
     16 C                    -0.212106      -0.002493
     17 C                     0.023291      -0.165271
     18 H                     0.125622      -0.008635
     19 H                     0.065411      -0.000587
     20 C                    -0.135084       0.005837
     21 C                     0.020325       0.654595
     22 C                    -0.223602       0.007483
     23 C                     0.078693      -0.174275
     24 H                     0.123304      -0.012098
     25 H                     0.136616      -0.008682
     26 H                     0.126070      -0.000385
     27 H                     0.082168      -0.000479
     28 C                    -0.228100       0.010880
     29 H                     0.084082      -0.000788
     30 C                     0.020954      -0.020377
     31 H                     0.080342      -0.001449
     32 H                     0.118841      -0.017931
     33 C                     0.060007      -0.224581
     34 H                     0.110242      -0.010388
     35 H                     0.133835       0.001842
     36 C                    -0.040328      -0.054464
     37 C                    -0.035295      -0.049150
     38 H                     0.103319       0.002003
     39 C                    -0.063277      -0.229132
     40 H                     0.152834       0.009468
     41 H                     0.127216       0.009304
     42 H                     0.125875      -0.019895
     43 H                     0.156062       0.004412
  --------------------------------------------------------
  Sum of atomic charges =     2.000000
  Sum of spin   charges =     4.000000

 -----------------------------------------------------------------
                    Cartesian Multipole Moments
 -----------------------------------------------------------------
    Charge (ESU x 10^10)
                 9.6064
    Dipole Moment (Debye)
         X      -8.1163      Y      -1.3070      Z      -0.0694
       Tot       8.2211
    Quadrupole Moments (Debye-Ang)
        XX     -16.6848     XY      -5.3987     YY     -74.2048
        XZ      -3.9778     YZ      -2.7674     ZZ    -108.6778
    Octopole Moments (Debye-Ang^2)
       XXX    -233.1718    XXY      41.7195    XYY     -46.6752
       YYY     -41.3133    XXZ       1.5121    XYZ      23.9554
       YYZ      -9.5580    XZZ       7.3644    YZZ     -14.8721
       ZZZ     -19.2749
    Hexadecapole Moments (Debye-Ang^3)
      XXXX   -3701.6342   XXXY    -382.8013   XXYY   -1091.6157
      XYYY      16.1113   YYYY   -2358.0671   XXXZ      51.7223
      XXYZ     -15.5976   XYYZ      35.6333   YYYZ      25.5056
      XXZZ   -1081.7578   XYZZ       2.5509   YYZZ    -492.1675
      XZZZ      56.0148   YZZZ      45.9012   ZZZZ    -526.9885
 -----------------------------------------------------------------
 Calculating analytic gradient of the SCF energy
 Gradient of SCF Energy
            1           2           3           4           5           6
    1  -0.0001768   0.0502777  -0.0420137  -0.0010595   0.0008110  -0.0019891
    2  -0.0131367   0.0684495  -0.0082956   0.0002056   0.0028484  -0.0119592
    3   0.0102768   0.0515278  -0.0777501  -0.0001958  -0.0023924   0.0225254
            7           8           9          10          11          12
    1   0.0005230  -0.0008409   0.0029072  -0.0175605  -0.0042334  -0.0063893
    2   0.0005224   0.0016077  -0.0020049  -0.0009250   0.0005343   0.0007940
    3  -0.0011658   0.0014094   0.0017830   0.0049351  -0.0240880  -0.0155982
           13          14          15          16          17          18
    1   0.0001050  -0.0044657   0.0001537   0.0126643   0.0208549   0.0074460
    2  -0.0007704  -0.0007101   0.0025014  -0.0097651  -0.0410711   0.0060945
    3  -0.0003108   0.0007454   0.0019784  -0.0120784  -0.0016537   0.0011145
           19          20          21          22          23          24
    1  -0.0003231  -0.0071675  -0.0223222  -0.0069149  -0.0092169  -0.0036451
    2  -0.0005996   0.0058945   0.0503458  -0.0078892   0.0141135  -0.0021533
    3  -0.0002968   0.0017780  -0.0017988   0.0025214   0.0250687   0.0005378
           25          26          27          28          29          30
    1  -0.0051921   0.0049508   0.0019908   0.0118377   0.0068721  -0.0145438
    2   0.0042767   0.0021477  -0.0044460   0.0062447  -0.0034805  -0.0727796
    3  -0.0025160  -0.0023952  -0.0008568   0.0095476  -0.0043126   0.0161482
           31          32          33          34          35          36
    1  -0.0003854  -0.0018247   0.0033425  -0.0001405  -0.0060129   0.0262289
    2  -0.0008423   0.0035168  -0.0052006   0.0023343  -0.0124226  -0.0064631
    3  -0.0002676  -0.0028363   0.0131327   0.0023642   0.0078674   0.0020161
           37          38          39          40          41          42
    1  -0.0339065   0.0009366   0.0189890   0.0119117   0.0030391   0.0072633
    2   0.0021933   0.0102766   0.0098782  -0.0041189   0.0102733  -0.0003964
    3  -0.0001562  -0.0068237  -0.0058258   0.0016249  -0.0057280   0.0045660
           43
    1  -0.0027808
    2   0.0043770
    3  -0.0144217
 Max gradient component =       7.775E-02
 RMS gradient           =       1.685E-02
 Gradient time:  CPU 26.90 s  wall 2.35 s
 Geometry Optimization Parameters
   NAtoms,    NIC,     NZ,  NCons,   NDum,   NFix, NCnnct, MaxDiis
       43     311       0       0       0       0       0       0

 Cartesian Hessian Update
 Hessian Updated using BFGS Update


** GEOMETRY OPTIMIZATION IN DELOCALIZED INTERNAL COORDINATES **
   Searching for a Minimum

   Optimization Cycle:   2

                       Coordinates (Angstroms)
     ATOM                X               Y               Z
      1  Fe       -1.9711699177   -3.0549200670    0.6562567840
      2  O        -1.8604480500   -1.2789482363   -0.0281579175
      3  O        -1.1556018119   -0.5605057443    0.9062079208
      4  H         3.5734410849    1.8635053629   -1.6695443028
      5  H         3.8402051411    3.0961962206   -0.3887607382
      6  C         3.1134858593    2.3570611865   -0.7892456649
      7  H         2.2197045419    2.9111617404   -1.1465124264
      8  H         4.8045372480    0.0756930292   -1.0594802104
      9  H         4.7748374180    1.3964883263    1.1437129947
     10  C         4.5718158932   -0.4005557221   -0.0846883854
     11  C         2.7225967048    1.3264323348    0.3187686360
     12  C         4.0065482046    0.6328050734    0.8932254262
     13  H         5.5122919621   -0.8441814330    0.3073329495
     14  H        -1.2462310253    2.7061081965   -1.6882321877
     15  H         2.8043214519    2.8290528282    1.9276360804
     16  C         2.0737613334    2.1095471350    1.4992579575
     17  C         1.7319572396    0.2982960838   -0.3188265636
     18  H         3.9055160383   -2.1903863630   -1.0800032874
     19  H         1.1943387673    2.6978720031    1.1631462390
     20  C         3.5340553957   -1.5186150298   -0.2736573490
     21  C         0.3377696493    0.8227082343   -0.6745323290
     22  C        -1.8196761243    2.8781966654   -0.7508983801
     23  C         2.1400253303   -1.0001801979   -0.6180574990
     24  H        -1.2151386191    3.5274822864   -0.0817678223
     25  H         1.8364598989   -2.3784550907   -2.2489050256
     26  H        -2.7265839847    3.4410319425   -1.0303295154
     27  H         3.7591368647    0.0951974956    1.8365653242
     28  C         1.2864595842   -2.0229418759   -1.3509652275
     29  H         0.3339975715   -1.6279060852   -1.7400972218
     30  C        -0.8321163766    0.7565292916    0.3880390613
     31  H         1.7580160370    1.4190929919    2.3094778325
     32  H         3.4406578174   -2.1358676869    0.6505768122
     33  C        -2.0929128398    1.5482942181   -0.0619337456
     34  H         1.0939897654   -2.9000489451   -0.6927202749
     35  H        -4.6562912310    2.7004387439   -0.6994585808
     36  C        -3.3665107369    1.0801072104    0.1978378685
     37  C        -4.6401989332    1.7496189681   -0.1649748836
     38  H        -3.4920152404    0.1378241939    0.7379395379
     39  C        -5.8386257194    1.1949083500    0.1599687592
     40  H        -6.7717289039    1.6996452549   -0.1111782200
     41  H        -5.9060376621    0.2420716078    0.6953794994
     42  H         0.0504773780    0.5960411563   -1.7255658948
     43  H        -0.4382083359    1.3223063508    1.2632511510
   Point Group: c1    Number of degrees of freedom:   123


   Energy is  -2013.868501548

 Hessian Updated using BFGS Update

110 Hessian modes will be used to form the next step
  Hessian Eigenvalues:
     0.002028    0.003011    0.003326    0.003437    0.004056    0.005553
     0.007160    0.007676    0.008509    0.009642    0.010684    0.010739
     0.011122    0.013893    0.014448    0.017123    0.019119    0.020067
     0.023202    0.026835    0.030611    0.030612    0.030892    0.032319
     0.043947    0.045295    0.046124    0.049836    0.053456    0.054088
     0.054185    0.054532    0.055048    0.056080    0.060673    0.064464
     0.068177    0.068353    0.068758    0.074331    0.075367    0.076715
     0.077892    0.082133    0.082507    0.095021    0.097568    0.120117
     0.131541    0.132692    0.157302    0.159769    0.159986    0.160232
     0.183817    0.187673    0.200798    0.214642    0.219899    0.220009
     0.225372    0.235701    0.241003    0.249648    0.249820    0.249919
     0.249951    0.257976    0.263659    0.268772    0.270403    0.280306
     0.281771    0.287574    0.290427    0.293561    0.300397    0.307594
     0.310933    0.321571    0.322090    0.322940    0.323197    0.323547
     0.324203    0.324396    0.324932    0.325152    0.325179    0.326204
     0.326336    0.326704    0.326929    0.326991    0.327018    0.327183
     0.328889    0.334599    0.335203    0.338146    0.342366    0.352749
     0.354413    0.358096    0.374744    0.466397    0.498367    0.527348
     0.583034    0.697719

 Minimum Search - Taking Simple RFO Step
 Searching for Lamda that Minimizes Along All modes
 Value Taken    Lamda =  -0.07572565
 Calculated Step too Large.  Step scaled by  0.496511
 Step Taken.  Stepsize is  0.300000

                             Maximum     Tolerance    Cnvgd?
         Gradient           0.057895      0.000300      NO
         Displacement       0.086360      0.001200      NO
         Energy change     -0.045865      0.000001      NO


 New Cartesian Coordinates Obtained by Inverse Iteration

 Displacement from previous Coordinates is:  0.990388
 ----------------------------------------------------------------
             Standard Nuclear Orientation (Angstroms)
    I     Atom           X                Y                Z
 ----------------------------------------------------------------
    1      Fe     -1.7749723003    -3.1729236955     0.4904014229
    2      O      -1.8371361848    -1.3628227607    -0.0230205025
    3      O      -1.1513387281    -0.5921655939     0.9800436336
    4      H       3.5460621114     1.8864706643    -1.6949241078
    5      H       3.8357528776     3.1197051361    -0.4174928661
    6      C       3.1033010061     2.3827746513    -0.8068981030
    7      H       2.1970949030     2.9302553824    -1.1416616072
    8      H       4.8070420458     0.0683242572    -1.1094693439
    9      H       4.8192623478     1.4151388524     1.1066646969
   10      C       4.5992012174    -0.4052810350    -0.1269481133
   11      C       2.7416034562     1.3462754770     0.3363271848
   12      C       4.0511698013     0.6454313557     0.8799597491
   13      H       5.5498259602    -0.8458707943     0.2425282920
   14      H      -1.1926395879     2.7109006201    -1.6554661267
   15      H       2.8490885292     2.8623168788     1.9412717903
   16      C       2.1057359486     2.1442370546     1.5401319360
   17      C       1.7354757408     0.3036576769    -0.2900472154
   18      H       3.8737382101    -2.2274366596    -1.1164869753
   19      H       1.2198941341     2.7323052512     1.2208808572
   20      C       3.5462997167    -1.5410368810    -0.3005471443
   21      C       0.3449835345     0.8043996684    -0.6062873181
   22      C      -1.7981992642     2.8889851103    -0.7361019527
   23      C       2.1310198797    -1.0175171940    -0.6138463034
   24      H      -1.2069316174     3.5471195694    -0.0587694610
   25      H       1.7281180311    -2.4095538729    -2.2281273719
   26      H      -2.7068469934     3.4416253028    -1.0388086684
   27      H       3.8213783635     0.1200112682     1.8333637092
   28      C       1.2163955913    -2.0377863724    -1.3118533464
   29      H       0.2480649378    -1.6159195811    -1.6461053301
   30      C      -0.8382686351     0.7731780317     0.4555177233
   31      H       1.8088752187     1.4618915116     2.3636048478
   32      H       3.4787777726    -2.1595008695     0.6303649123
   33      C      -2.1085407612     1.5579650459    -0.0411932605
   34      H       1.0343124570    -2.9148258973    -0.6495369439
   35      H      -4.6266146375     2.7030256339    -0.7749042497
   36      C      -3.4051227391     1.0850149870     0.1948372907
   37      C      -4.6566386255     1.7505158179    -0.2152213437
   38      H      -3.5471576322     0.1417586804     0.7536730978
   39      C      -5.8967599826     1.2064998760     0.0874710082
   40      H      -6.8275773476     1.7199346933    -0.2225819871
   41      H      -5.9994554270     0.2553256093     0.6441387422
   42      H       0.0303409341     0.5641804032    -1.6531918490
   43      H      -0.4577055938     1.3316187454     1.3543977781
 ----------------------------------------------------------------
 Molecular Point Group                 C1    NOp =  1
 Largest Abelian Subgroup              C1    NOp =  1
 Nuclear Repulsion Energy =  1733.9709887697 hartrees
 There are       82 alpha and       78 beta electrons
 Applying Cartesian multipole field
    Component          Value
    ---------          -----
     (2,0,0)        1.00000E-12
     (0,2,0)        2.00000E-11
     (0,0,2)       -3.00000E-11
 Nucleus-field energy     =     0.0000000386 hartrees
 Requested basis set is STO-3G
 There are 65 shells and 132 basis functions
 A cutoff of  1.0D-12 yielded   1623 shell pairs
 There are      7268 function pairs (      7362 Cartesian)
 Smallest overlap matrix eigenvalue = 2.06E-01
 Guess MOs from SCF MO coefficient file

 -----------------------------------------------------------------------
  General SCF calculation program by
  Eric Jon Sundstrom, Paul Horn, Yuezhi Mao, Dmitri Zuev, Alec White,
  David Stuck, Shaama M.S., Shane Yost, Joonho Lee, David Small,
  Daniel Levine, Susi Lehtola, Hugh Burton, Evgeny Epifanovsky
 -----------------------------------------------------------------------
 Exchange:  B88      Correlation:  LYP
 Using SG-1 standard quadrature grid
 using 12 threads for integral computing
 -------------------------------------------------------
 OpenMP Integral computing Module                
 Release: version 1.0, May 2013, Q-Chem Inc. Pittsburgh 
 -------------------------------------------------------
 -------------------------------------------------------
 OpenMP BLAS3 based DFT computing Module                
 Release: version 1.0, May 2013, Q-Chem Inc. Pittsburgh 
 -------------------------------------------------------
 A unrestricted SCF calculation will be
 performed using DIIS, GDM
 SCF converges when RMS gradient is below 1.0e-08
 ---------------------------------------
  Cycle       Energy         DIIS error
 ---------------------------------------
    1   -2013.8795250423      6.78e-04  
    2   -2013.8758753819      7.85e-04  Done DIIS. Switching to GDM
 ---------------------------------------
  Cycle       Energy        RMS Gradient
 ---------------------------------------
    1   -2013.8758753819      1.86e-01   Descent step
    2   -2013.7442479026      4.21e-01  Line search: overstep
    3   -2013.8895204408      8.15e-02   Normal BFGS step
    4   -2013.8729740952      2.10e-01  Line search: overstep
    5   -2013.8927410691      2.38e-02   Normal BFGS step
    6   -2013.8935524617      2.09e-02   Normal BFGS step
    7   -2013.8931905383      1.84e-02  Line search: overstep
    8   -2013.8938875909      1.21e-02   Normal BFGS step
    9   -2013.8939617663      4.45e-03   Normal BFGS step
   10   -2013.8940064551      7.37e-03   Normal BFGS step
   11   -2013.8940162363      5.66e-03   Normal BFGS step
   12   -2013.8940628824      2.30e-03   Normal BFGS step
   13   -2013.8940658183      1.46e-03   Normal BFGS step
   14   -2013.8940699367      9.05e-04   Normal BFGS step
   15   -2013.8940693728      1.67e-03  Line search: overstep
   16   -2013.8940712202      4.58e-04   Normal BFGS step
   17   -2013.8940708503      1.22e-03  Line search: overstep
   18   -2013.8940717092      5.21e-04   Normal BFGS step
   19   -2013.8940721115      2.35e-04   Normal BFGS step
   20   -2013.8940722471      2.34e-04   Normal BFGS step
   21   -2013.8940723453      8.21e-05   Normal BFGS step
   22   -2013.8940723663      1.46e-04   Normal BFGS step
   23   -2013.8940723868      3.17e-05   Normal BFGS step
   24   -2013.8940723897      3.31e-05   Normal BFGS step
   25   -2013.8940723920      2.08e-05   Normal BFGS step
   26   -2013.8940723921      1.72e-05   Normal BFGS step
   27   -2013.8940723925      1.31e-05   Normal BFGS step
   28   -2013.8940723920      2.02e-05   Normal BFGS step
   29   -2013.8940723927      7.11e-06   Normal BFGS step
   30   -2013.8940723925      1.16e-05   Normal BFGS step
   31   -2013.8940723927      2.49e-06   Normal BFGS step
   32   -2013.8940723926      4.73e-06   Normal BFGS step
   33   -2013.8940723927      8.96e-07   Normal BFGS step
   34   -2013.8940723927      2.92e-06   Normal BFGS step
   35   -2013.8940723927      3.89e-07   Normal BFGS step
   36   -2013.8940723927      7.50e-07   Normal BFGS step
   37   -2013.8940723927      2.26e-07   Normal BFGS step
   38   -2013.8940723927      3.05e-07   Normal BFGS step
   39   -2013.8940723927      1.63e-07   Normal BFGS step
   40   -2013.8940723927      3.74e-07   Normal BFGS step
   41   -2013.8940723927      1.06e-08   Normal BFGS step
   42   -2013.8940723928      2.57e-08   Normal BFGS step
   43   -2013.8940723928      4.06e-09  Convergence criterion met
 ---------------------------------------
 SCF time:   CPU 376.16s  wall 31.00s 
<S^2> =          7.266480826
 SCF   energy in the final basis set =    -2013.8940723928
 Total energy in the final basis set =    -2013.8940723928
 
 --------------------------------------------------------------
 
                    Orbital Energies (a.u.)
 --------------------------------------------------------------
 
 Alpha MOs
 -- Occupied --
******* -29.663 -26.217 -26.216 -26.211 -18.997 -18.921 -10.146
-10.092 -10.081 -10.075 -10.060 -10.060 -10.047 -10.037 -10.035
-10.028 -10.027 -10.012  -9.974  -9.972  -9.972  -9.970  -3.860
 -2.702  -2.699  -2.687  -1.290  -1.069  -0.992  -0.976  -0.934
 -0.915  -0.906  -0.868  -0.847  -0.847  -0.808  -0.796  -0.790
 -0.752  -0.725  -0.716  -0.712  -0.692  -0.678  -0.655  -0.649
 -0.633  -0.624  -0.616  -0.607  -0.601  -0.589  -0.583  -0.577
 -0.571  -0.566  -0.565  -0.558  -0.553  -0.552  -0.546  -0.538
 -0.530  -0.530  -0.529  -0.528  -0.522  -0.519  -0.515  -0.503
 -0.495  -0.493  -0.491  -0.476  -0.462  -0.458  -0.447  -0.437
 -0.418  -0.408
 -- Virtual --
 -0.403  -0.397  -0.314  -0.283  -0.260  -0.224  -0.213  -0.151
 -0.134  -0.090  -0.051  -0.017   0.002   0.029   0.036   0.049
  0.055   0.068   0.069   0.073   0.080   0.082   0.094   0.108
  0.114   0.121   0.124   0.126   0.129   0.134   0.147   0.155
  0.161   0.166   0.178   0.184   0.193   0.199   0.200   0.215
  0.219   0.223   0.229   0.235   0.249   0.256   0.261   0.308
  0.310   0.354
 
 Beta MOs
 -- Occupied --
******* -29.621 -26.183 -26.182 -26.179 -18.999 -18.924 -10.146
-10.085 -10.084 -10.077 -10.062 -10.060 -10.047 -10.040 -10.034
-10.028 -10.027 -10.012  -9.974  -9.972  -9.972  -9.970  -3.641
 -2.479  -2.478  -2.475  -1.298  -1.076  -0.993  -0.982  -0.935
 -0.917  -0.905  -0.869  -0.850  -0.848  -0.807  -0.796  -0.789
 -0.756  -0.725  -0.717  -0.714  -0.693  -0.679  -0.657  -0.649
 -0.635  -0.625  -0.617  -0.608  -0.603  -0.592  -0.584  -0.580
 -0.572  -0.570  -0.567  -0.559  -0.554  -0.552  -0.547  -0.534
 -0.530  -0.519  -0.506  -0.504  -0.495  -0.493  -0.489  -0.460
 -0.459  -0.446  -0.438  -0.435  -0.430  -0.423
 -- Virtual --
 -0.361  -0.314  -0.314  -0.312  -0.311  -0.306  -0.305  -0.281
 -0.277  -0.240  -0.214  -0.164  -0.124  -0.085  -0.051  -0.011
  0.001   0.029   0.035   0.050   0.052   0.067   0.068   0.071
  0.080   0.082   0.096   0.102   0.113   0.121   0.123   0.125
  0.127   0.133   0.147   0.154   0.162   0.166   0.178   0.184
  0.192   0.198   0.199   0.215   0.216   0.222   0.228   0.231
  0.249   0.255   0.260   0.304   0.307   0.350
 --------------------------------------------------------------
 
          Ground-State Mulliken Net Atomic Charges

     Atom                 Charge (a.u.)    Spin (a.u.)
  --------------------------------------------------------
      1 Fe                    0.602675       4.729476
      2 O                    -0.125049      -0.231402
      3 O                     0.002056      -0.136592
      4 H                     0.093556       0.001353
      5 H                     0.112824      -0.003110
      6 C                    -0.208536      -0.023771
      7 H                     0.080735      -0.000123
      8 H                     0.091222      -0.000406
      9 H                     0.105851       0.001539
     10 C                    -0.128486      -0.002012
     11 C                     0.032031       0.010590
     12 C                    -0.129128       0.000028
     13 H                     0.110484      -0.000487
     14 H                     0.115353      -0.013463
     15 H                     0.111838       0.000473
     16 C                    -0.213848      -0.001799
     17 C                     0.022046      -0.149111
     18 H                     0.124267      -0.007544
     19 H                     0.067234      -0.000415
     20 C                    -0.133081       0.006609
     21 C                     0.017579       0.601405
     22 C                    -0.221327       0.008778
     23 C                     0.082555      -0.168316
     24 H                     0.122878      -0.011787
     25 H                     0.137043      -0.007767
     26 H                     0.123509      -0.000298
     27 H                     0.083416      -0.000384
     28 C                    -0.224723       0.011283
     29 H                     0.083842      -0.000819
     30 C                     0.019306      -0.022067
     31 H                     0.081986      -0.001280
     32 H                     0.118421      -0.016338
     33 C                     0.061609      -0.228290
     34 H                     0.109212      -0.008907
     35 H                     0.131276       0.001947
     36 C                    -0.039221      -0.047464
     37 C                    -0.030655      -0.047709
     38 H                     0.107408       0.001877
     39 C                    -0.054207      -0.248897
     40 H                     0.151965       0.010451
     41 H                     0.129091       0.010272
     42 H                     0.122709      -0.019321
     43 H                     0.152286       0.003797
  --------------------------------------------------------
  Sum of atomic charges =     2.000000
  Sum of spin   charges =     4.000000

 -----------------------------------------------------------------
                    Cartesian Multipole Moments
 -----------------------------------------------------------------
    Charge (ESU x 10^10)
                 9.6064
    Dipole Moment (Debye)
         X      -7.9343      Y      -1.4706      Z      -0.3300
       Tot       8.0762
    Quadrupole Moments (Debye-Ang)
        XX     -14.8661     XY      -6.1690     YY     -71.8077
        XZ      -2.6588     YZ      -2.1317     ZZ    -108.6991
    Octopole Moments (Debye-Ang^2)
       XXX    -255.3220    XXY      49.8130    XYY     -50.8951
       YYY     -43.5047    XXZ      -1.6018    XYZ      23.6302
       YYZ      -7.6297    XZZ       4.7193    YZZ     -12.6242
       ZZZ     -12.2913
    Hexadecapole Moments (Debye-Ang^3)
      XXXX   -3535.9531   XXXY    -397.1196   XXYY   -1101.8202
      XYYY      46.2796   YYYY   -2428.6681   XXXZ      45.8318
      XXYZ     -25.8826   XYYZ      27.8235   YYYZ      -2.8297
      XXZZ   -1075.9908   XYZZ       7.2358   YYZZ    -503.1083
      XZZZ      26.9016   YZZZ      23.1996   ZZZZ    -511.4137
 -----------------------------------------------------------------
 Calculating analytic gradient of the SCF energy
 Gradient of SCF Energy
            1           2           3           4           5           6
    1   0.0025577   0.0156432  -0.0144414  -0.0007928  -0.0000104   0.0011444
    2  -0.0237758   0.0405664  -0.0016347   0.0007090   0.0013316  -0.0039313
    3   0.0084809   0.0124598  -0.0304844  -0.0008740  -0.0019630   0.0123047
            7           8           9          10          11          12
    1   0.0004007  -0.0004301   0.0010767  -0.0049391  -0.0046199  -0.0017800
    2   0.0003645   0.0007616  -0.0015941  -0.0013412  -0.0004417   0.0047637
    3  -0.0013911   0.0006987   0.0022669   0.0010384  -0.0194423  -0.0042717
           13          14          15          16          17          18
    1   0.0003116  -0.0019867  -0.0010491   0.0076278   0.0110514   0.0045672
    2  -0.0001085  -0.0000575   0.0011162  -0.0032738  -0.0250264   0.0030492
    3  -0.0009523  -0.0007532   0.0009347  -0.0029459  -0.0030462   0.0003765
           19          20          21          22          23          24
    1  -0.0005573  -0.0034930  -0.0095640  -0.0031670  -0.0076095  -0.0013050
    2   0.0000194  -0.0008753   0.0457158  -0.0040971   0.0020901  -0.0001020
    3   0.0005425  -0.0008660   0.0016788   0.0011137   0.0191112   0.0004056
           25          26          27          28          29          30
    1  -0.0032149   0.0021211   0.0012120   0.0053068   0.0016740  -0.0062822
    2   0.0030202   0.0013279  -0.0024077  -0.0016799  -0.0015017  -0.0477119
    3  -0.0020944  -0.0013886  -0.0007514   0.0068850  -0.0037471   0.0097189
           31          32          33          34          35          36
    1  -0.0005098  -0.0012708   0.0039604  -0.0008258  -0.0024837   0.0094514
    2   0.0001132   0.0013695   0.0009054   0.0017778  -0.0026398  -0.0022590
    3   0.0001456  -0.0005650   0.0070263   0.0005536   0.0020263   0.0003246
           37          38          39          40          41          42
    1  -0.0099572  -0.0017829   0.0036836   0.0031382   0.0008535   0.0058188
    2   0.0021962   0.0033219   0.0012789  -0.0009278   0.0026954  -0.0005207
    3  -0.0010166  -0.0020432  -0.0008101   0.0002719  -0.0016247   0.0001293
           43
    1   0.0004720
    2   0.0074139
    3  -0.0074627
 Max gradient component =       4.771E-02
 RMS gradient           =       9.259E-03
 Gradient time:  CPU 27.01 s  wall 2.38 s
 Geometry Optimization Parameters
   NAtoms,    NIC,     NZ,  NCons,   NDum,   NFix, NCnnct, MaxDiis
       43     311       0       0       0       0       0       0

 Cartesian Hessian Update
 Hessian Updated using BFGS Update


** GEOMETRY OPTIMIZATION IN DELOCALIZED INTERNAL COORDINATES **
   Searching for a Minimum

   Optimization Cycle:   3

                       Coordinates (Angstroms)
     ATOM                X               Y               Z
      1  Fe       -1.7749723003   -3.1729236955    0.4904014229
      2  O        -1.8371361848   -1.3628227607   -0.0230205025
      3  O        -1.1513387281   -0.5921655939    0.9800436336
      4  H         3.5460621114    1.8864706643   -1.6949241078
      5  H         3.8357528776    3.1197051361   -0.4174928661
      6  C         3.1033010061    2.3827746513   -0.8068981030
      7  H         2.1970949030    2.9302553824   -1.1416616072
      8  H         4.8070420458    0.0683242572   -1.1094693439
      9  H         4.8192623478    1.4151388524    1.1066646969
     10  C         4.5992012174   -0.4052810350   -0.1269481133
     11  C         2.7416034562    1.3462754770    0.3363271848
     12  C         4.0511698013    0.6454313557    0.8799597491
     13  H         5.5498259602   -0.8458707943    0.2425282920
     14  H        -1.1926395879    2.7109006201   -1.6554661267
     15  H         2.8490885292    2.8623168788    1.9412717903
     16  C         2.1057359486    2.1442370546    1.5401319360
     17  C         1.7354757408    0.3036576769   -0.2900472154
     18  H         3.8737382101   -2.2274366596   -1.1164869753
     19  H         1.2198941341    2.7323052512    1.2208808572
     20  C         3.5462997167   -1.5410368810   -0.3005471443
     21  C         0.3449835345    0.8043996684   -0.6062873181
     22  C        -1.7981992642    2.8889851103   -0.7361019527
     23  C         2.1310198797   -1.0175171940   -0.6138463034
     24  H        -1.2069316174    3.5471195694   -0.0587694610
     25  H         1.7281180311   -2.4095538729   -2.2281273719
     26  H        -2.7068469934    3.4416253028   -1.0388086684
     27  H         3.8213783635    0.1200112682    1.8333637092
     28  C         1.2163955913   -2.0377863724   -1.3118533464
     29  H         0.2480649378   -1.6159195811   -1.6461053301
     30  C        -0.8382686351    0.7731780317    0.4555177233
     31  H         1.8088752187    1.4618915116    2.3636048478
     32  H         3.4787777726   -2.1595008695    0.6303649123
     33  C        -2.1085407612    1.5579650459   -0.0411932605
     34  H         1.0343124570   -2.9148258973   -0.6495369439
     35  H        -4.6266146375    2.7030256339   -0.7749042497
     36  C        -3.4051227391    1.0850149870    0.1948372907
     37  C        -4.6566386255    1.7505158179   -0.2152213437
     38  H        -3.5471576322    0.1417586804    0.7536730978
     39  C        -5.8967599826    1.2064998760    0.0874710082
     40  H        -6.8275773476    1.7199346933   -0.2225819871
     41  H        -5.9994554270    0.2553256093    0.6441387422
     42  H         0.0303409341    0.5641804032   -1.6531918490
     43  H        -0.4577055938    1.3316187454    1.3543977781
   Point Group: c1    Number of degrees of freedom:   123


   Energy is  -2013.894072393

 Hessian Updated using BFGS Update

111 Hessian modes will be used to form the next step
  Hessian Eigenvalues:
     0.002027    0.003011    0.003326    0.003437    0.004056    0.005274
     0.007160    0.007677    0.008536    0.009660    0.010685    0.010759
     0.011128    0.014001    0.014517    0.016527    0.019120    0.020067
     0.026761    0.027908    0.030612    0.030615    0.030898    0.032816
     0.045279    0.046091    0.047784    0.049911    0.053371    0.054084
     0.054232    0.054566    0.055048    0.056080    0.060702    0.065169
     0.068176    0.068451    0.069388    0.074323    0.075221    0.076841
     0.077922    0.082289    0.082851    0.095259    0.097735    0.120170
     0.131817    0.132694    0.154588    0.159790    0.159991    0.160131
     0.161394    0.171169    0.185490    0.211151    0.219176    0.219890
     0.220036    0.226581    0.231752    0.247320    0.249689    0.249879
     0.249923    0.252627    0.263078    0.266268    0.269964    0.279637
     0.281761    0.285639    0.288249    0.292000    0.300011    0.306818
     0.309471    0.317820    0.321613    0.322665    0.323137    0.323540
     0.324002    0.324374    0.324414    0.325117    0.325170    0.326201
     0.326307    0.326394    0.326709    0.326989    0.327009    0.327174
     0.327821    0.332576    0.334932    0.335094    0.339536    0.352722
     0.354234    0.357027    0.365173    0.423248    0.479959    0.516378
     0.531655    0.583889    0.685716

 Minimum Search - Taking Simple RFO Step
 Searching for Lamda that Minimizes Along All modes
 Value Taken    Lamda =  -0.03855466
 Calculated Step too Large.  Step scaled by  0.393767
 Step Taken.  Stepsize is  0.300000

                             Maximum     Tolerance    Cnvgd?
         Gradient           0.023783      0.000300      NO
         Displacement       0.104038      0.001200      NO
         Energy change     -0.025571      0.000001      NO


 New Cartesian Coordinates Obtained by Inverse Iteration

 Displacement from previous Coordinates is:  1.193134
 ----------------------------------------------------------------
             Standard Nuclear Orientation (Angstroms)
    I     Atom           X                Y                Z
 ----------------------------------------------------------------
    1      Fe     -1.8317935017    -3.1114198432     0.6171159659
    2      O      -1.8728746251    -1.3393150354     0.1072336398
    3      O      -1.1387766498    -0.5464178853     1.0834105487
    4      H       3.5041307188     1.9289513425    -1.6545332104
    5      H       3.7496355382     3.1426285435    -0.3464948155
    6      C       3.0408467118     2.3969025404    -0.7615302175
    7      H       2.1187208393     2.9229230469    -1.0862826338
    8      H       4.8199204846     0.1364993499    -1.1049407240
    9      H       4.7760527401     1.4332607965     1.1430423179
   10      C       4.6187028829    -0.3671517788    -0.1357203902
   11      C       2.7051654690     1.3256276160     0.3658842321
   12      C       4.0328131507     0.6450120144     0.8982608745
   13      H       5.5782431132    -0.7900365402     0.2314069328
   14      H      -1.1657677697     2.6132100124    -1.7488206894
   15      H       2.7574258721     2.8094130016     2.0001774300
   16      C       2.0332899388     2.0819107351     1.5820092393
   17      C       1.7320502175     0.2670848808    -0.2969719032
   18      H       3.9335709124    -2.1924481170    -1.1840427610
   19      H       1.1357028545     2.6521241093     1.2645906822
   20      C       3.5963097359    -1.5299418635    -0.3516773729
   21      C       0.3369810449     0.7083288038    -0.6076894080
   22      C      -1.7630787856     2.8517856788    -0.8374644620
   23      C       2.1664798483    -1.0369163798    -0.6634513986
   24      H      -1.1545275972     3.5378362532    -0.2038277525
   25      H       1.7869108779    -2.3932400788    -2.3154830670
   26      H      -2.6709437734     3.3961593282    -1.1593996197
   27      H       3.8092532571     0.0963308834     1.8396509714
   28      C       1.2648450134    -2.0546371076    -1.3917074564
   29      H       0.2861395749    -1.6354510853    -1.7011536222
   30      C      -0.8241250273     0.7929603763     0.4693216623
   31      H       1.7497805092     1.3745350437     2.3887907298
   32      H       3.5417701384    -2.1751741777     0.5629783436
   33      C      -2.0909152838     1.5654110922    -0.0641836282
   34      H       1.1001351373    -2.9539868975    -0.7567460881
   35      H      -4.5869728399     2.6944654708    -0.8385657449
   36      C      -3.3915798825     1.1216075491     0.2177493695
   37      C      -4.6332477034     1.7780667436    -0.2176493214
   38      H      -3.5302360534     0.2131361717     0.8371660194
   39      C      -5.8844024911     1.2774435330     0.1337492688
   40      H      -6.8122941828     1.7887031012    -0.1971823049
   41      H      -5.9988003370     0.3639899926     0.7530224856
   42      H      -0.0097424803     0.4254533045    -1.6353667534
   43      H      -0.4238889282     1.3825774803     1.3414118124
 ----------------------------------------------------------------
 Molecular Point Group                 C1    NOp =  1
 Largest Abelian Subgroup              C1    NOp =  1
 Nuclear Repulsion Energy =  1733.2881808801 hartrees
 There are       82 alpha and       78 beta electrons
 Applying Cartesian multipole field
    Component          Value
    ---------          -----
     (2,0,0)        1.00000E-12
     (0,2,0)        2.00000E-11
     (0,0,2)       -3.00000E-11
[...]
******* -29.614 -26.174 -26.173 -26.172 -18.967 -18.948 -10.122
-10.118 -10.094 -10.077 -10.053 -10.044 -10.040 -10.035 -10.030
-10.021 -10.016 -10.016  -9.989  -9.979  -9.977  -9.976  -3.643
 -2.496  -2.474  -2.470  -1.260  -1.077  -1.007  -0.968  -0.938
 -0.919  -0.902  -0.872  -0.854  -0.836  -0.815  -0.803  -0.786
 -0.741  -0.737  -0.725  -0.702  -0.684  -0.678  -0.651  -0.637
 -0.635  -0.622  -0.615  -0.607  -0.593  -0.591  -0.580  -0.576
 -0.576  -0.571  -0.565  -0.563  -0.558  -0.550  -0.543  -0.539
 -0.531  -0.521  -0.514  -0.511  -0.503  -0.498  -0.483  -0.478
 -0.470  -0.461  -0.454  -0.441  -0.426  -0.400
 -- Virtual --
 -0.373  -0.338  -0.306  -0.305  -0.304  -0.301  -0.273  -0.266
 -0.229  -0.222  -0.197  -0.150  -0.111  -0.037  -0.024  -0.007
  0.005   0.011   0.025   0.028   0.049   0.057   0.065   0.073
  0.077   0.088   0.094   0.102   0.111   0.116   0.121   0.125
  0.134   0.137   0.144   0.148   0.165   0.167   0.178   0.181
  0.186   0.191   0.207   0.208   0.221   0.233   0.238   0.239
  0.251   0.258   0.276   0.281   0.329   0.369
 --------------------------------------------------------------
 
          Ground-State Mulliken Net Atomic Charges

     Atom                 Charge (a.u.)    Spin (a.u.)
  --------------------------------------------------------
      1 Fe                    0.630399       4.380584
      2 O                    -0.192865      -0.112448
      3 O                     0.046069       0.003346
      4 H                     0.091555      -0.000022
      5 H                     0.107566      -0.000057
      6 C                    -0.213680       0.000189
      7 H                     0.068688      -0.000012
      8 H                     0.095561      -0.000030
      9 H                     0.106085       0.000031
     10 C                    -0.128008       0.000254
     11 C                     0.029463       0.000178
     12 C                    -0.130932      -0.000106
     13 H                     0.116264      -0.000036
     14 H                     0.099517      -0.006308
     15 H                     0.109154      -0.000105
     16 C                    -0.214982      -0.000298
     17 C                     0.023837      -0.002750
     18 H                     0.133373       0.000493
     19 H                     0.067234      -0.000042
     20 C                    -0.133291      -0.001677
     21 C                    -0.003991       0.012695
     22 C                    -0.221605       0.005517
     23 C                     0.143497       0.029381
     24 H                     0.106072      -0.005698
     25 H                     0.146150       0.001370
     26 H                     0.118099      -0.000287
     27 H                     0.086641      -0.000021
     28 C                    -0.222669      -0.001809
     29 H                     0.106998       0.000139
     30 C                     0.000236       0.019685
     31 H                     0.083338       0.000011
     32 H                     0.142471       0.001727
     33 C                     0.031633      -0.120790
     34 H                     0.142469       0.000636
     35 H                     0.120638       0.000930
     36 C                    -0.029967      -0.035547
     37 C                    -0.044169      -0.020911
     38 H                     0.111387       0.001608
     39 C                    -0.059044      -0.159753
     40 H                     0.144172       0.006741
     41 H                     0.128348       0.006636
     42 H                     0.119468      -0.000599
     43 H                     0.138821      -0.002845
  --------------------------------------------------------
  Sum of atomic charges =     2.000000
  Sum of spin   charges =     4.000000

 -----------------------------------------------------------------
                    Cartesian Multipole Moments
 -----------------------------------------------------------------
    Charge (ESU x 10^10)
                 9.6064
    Dipole Moment (Debye)
         X      -3.7060      Y      -1.3120      Z       0.4176
       Tot       3.9535
    Quadrupole Moments (Debye-Ang)
        XX     -24.8261     XY     -15.8765     YY     -67.9930
        XZ     -14.2003     YZ      -2.8501     ZZ     -92.3215
    Octopole Moments (Debye-Ang^2)
       XXX     -52.6495    XXY      65.1961    XYY    -116.9074
       YYY     -31.7954    XXZ     -47.1684    XYZ      45.8938
       YYZ       8.0086    XZZ       1.6266    YZZ     -43.6225
       ZZZ     -83.7930
    Hexadecapole Moments (Debye-Ang^3)
      XXXX   -3986.6876   XXXY    -410.5283   XXYY    -674.5478
      XYYY     -76.2243   YYYY   -2045.7979   XXXZ     125.7907
      XXYZ       8.7926   XYYZ     -39.9668   YYYZ      88.8629
      XXZZ    -986.4331   XYZZ      76.8602   YYZZ    -544.4791
      XZZZ     125.1938   YZZZ     108.1825   ZZZZ   -1283.7703
 -----------------------------------------------------------------
 Calculating analytic gradient of the SCF energy
 Gradient of SCF Energy
            1           2           3           4           5           6
    1  -0.0002257  -0.0004089  -0.0006438  -0.0000778   0.0001071  -0.0001317
    2  -0.0022984   0.0023855   0.0023276   0.0001634  -0.0001982  -0.0000347
    3   0.0012534  -0.0016726  -0.0003658  -0.0001837   0.0001020   0.0001745
            7           8           9          10          11          12
    1  -0.0000554  -0.0005095  -0.0000867   0.0003208  -0.0001867   0.0007017
    2   0.0003484  -0.0002349   0.0000313   0.0002131   0.0007905   0.0002431
    3  -0.0001062   0.0004346  -0.0001496  -0.0007560  -0.0001245   0.0007576
           13          14          15          16          17          18
    1  -0.0001001  -0.0004624   0.0001252  -0.0002167   0.0017814   0.0000430
    2   0.0000645  -0.0000766  -0.0001711  -0.0002503  -0.0021635  -0.0002019
    3  -0.0001457  -0.0002518   0.0001081  -0.0003498  -0.0021362   0.0000679
           19          20          21          22          23          24
    1  -0.0004732   0.0003295  -0.0004280   0.0005680  -0.0010888   0.0001602
    2   0.0000086  -0.0003047   0.0011765   0.0014002   0.0004388  -0.0001407
    3  -0.0002817  -0.0002844   0.0015293  -0.0006886   0.0012546   0.0001855
           25          26          27          28          29          30
    1   0.0003981  -0.0001445  -0.0000894   0.0003884   0.0000001   0.0013315
    2   0.0000790   0.0003306   0.0001286  -0.0004407   0.0002811  -0.0008258
    3  -0.0001561  -0.0000741  -0.0001789  -0.0000451  -0.0001781   0.0033869
           31          32          33          34          35          36
    1  -0.0002604   0.0000955  -0.0011344  -0.0002603  -0.0002559  -0.0004976
    2  -0.0000345   0.0001898  -0.0042450   0.0000606  -0.0003818   0.0000679
    3   0.0000313   0.0000012  -0.0021870  -0.0000881  -0.0005600   0.0013044
           37          38          39          40          41          42
    1   0.0004028   0.0002112  -0.0000485  -0.0005525   0.0002048   0.0001979
    2  -0.0005531   0.0002397   0.0003565   0.0002876   0.0003093   0.0002360
    3   0.0003101   0.0005466   0.0000872  -0.0002816   0.0006541  -0.0002288
           43
    1   0.0009717
    2   0.0003976
    3  -0.0007146
 Max gradient component =       4.245E-03
 RMS gradient           =       8.521E-04
 Gradient time:  CPU 28.52 s  wall 2.48 s
 Geometry Optimization Parameters
   NAtoms,    NIC,     NZ,  NCons,   NDum,   NFix, NCnnct, MaxDiis
       43     311       0       0       0       0       0       0

 Cartesian Hessian Update
 Hessian Updated using BFGS Update


** GEOMETRY OPTIMIZATION IN DELOCALIZED INTERNAL COORDINATES **
   Searching for a Minimum

   Optimization Cycle:  23

                       Coordinates (Angstroms)
     ATOM                X               Y               Z
      1  Fe       -2.1337553720   -2.8972401761    1.8753262675
      2  O        -2.1152387177   -1.4410367167    1.3077416363
      3  O        -1.4238760554   -0.1979839457    1.7030975044
      4  H         2.4653708848    2.7365153342   -0.5116496396
      5  H         2.4558560656    3.1720470506    1.2324211896
      6  C         2.0124975670    2.4992425949    0.4713855660
      7  H         0.9274907323    2.7131087317    0.4126449766
      8  H         4.3135061657    1.5927605032   -1.0865002473
      9  H         4.3238378687    1.6661785464    1.4976780110
     10  C         4.5463948058    0.6983718748   -0.4696155409
     11  C         2.3186554803    0.9954715009    0.8888400258
     12  C         3.8975977359    0.8012628367    0.9473528871
     13  H         5.6512854007    0.6193336251   -0.3847987423
     14  H        -2.6491702240   -0.8473670500   -1.5349031940
     15  H         2.3679702611    1.2683973155    3.0784092479
     16  C         1.7689687837    0.6871929820    2.3490874978
     17  C         1.6516332611   -0.0037777796   -0.1636445756
     18  H         4.3345202081   -0.6822927359   -2.2413060909
     19  H         0.7080501186    0.9726210328    2.4790134463
     20  C         4.0078523306   -0.5886813701   -1.1765396640
     21  C         0.2482939883   -0.1732039204   -0.2993844682
     22  C        -2.4492809966    0.2278421454   -1.7478685752
     23  C         2.4853080575   -0.7762543738   -1.1141531264
     24  H        -1.6138664552    0.2854778617   -2.4792035484
     25  H         1.9756074754   -1.3141764790   -3.1467836950
     26  H        -3.3505614145    0.6558456185   -2.2263365651
     27  H         4.1344163038   -0.1164283407    1.5283458204
     28  C         1.9542308477   -1.7992648561   -2.1376522823
     29  H         0.9326609697   -2.1744570098   -1.9420875777
     30  C        -0.8837882756    0.5910096570    0.4068002628
     31  H         1.8829724159   -0.3890278326    2.5910593168
     32  H         4.4302448133   -1.4989566842   -0.6622534856
     33  C        -2.1047499845    0.9928205232   -0.4545677136
     34  H         2.6625271549   -2.6564563818   -2.1904303683
     35  H        -4.5177935627    2.1730104999   -1.4280832255
     36  C        -2.8597360857    2.0655729545    0.0610796904
     37  C        -4.0936424028    2.6207850777   -0.5058431112
     38  H        -2.4982385141    2.5533353660    0.9936824620
     39  C        -4.7414455374    3.7002221984    0.0824367376
     40  H        -5.6714802081    4.1217877009   -0.3573762810
     41  H        -4.3561673440    4.1826799545    1.0072567608
     42  H        -0.1127284941   -0.9149972241   -1.0426610046
     43  H        -0.4913213836    1.4769113954    0.9660705966
   Point Group: c1    Number of degrees of freedom:   123


   Energy is  -2013.987872645

 Hessian Updated using BFGS Update

123 Hessian modes will be used to form the next step
  Hessian Eigenvalues:
     0.000764    0.003064    0.003641    0.003835    0.005804    0.007237
     0.007749    0.008998    0.010639    0.010806    0.011142    0.014678
     0.014937    0.015408    0.019199    0.020110    0.020927    0.024274
     0.027602    0.030610    0.030646    0.031847    0.032866    0.041024
     0.045627    0.049666    0.050888    0.054298    0.054578    0.055079
     0.055228    0.056265    0.059276    0.061033    0.062716    0.067543
     0.068214    0.068797    0.071676    0.074444    0.075640    0.077928
     0.080918    0.082889    0.083169    0.096145    0.099797    0.121098
     0.121355    0.134782    0.150036    0.159728    0.159967    0.160024
     0.160058    0.160125    0.160156    0.160224    0.160294    0.160387
     0.160540    0.160940    0.161023    0.162614    0.163928    0.166648
     0.167735    0.171698    0.188947    0.216058    0.220927    0.222333
     0.227107    0.230059    0.245871    0.258106    0.262147    0.266243
     0.267602    0.278214    0.278741    0.282574    0.286321    0.293774
     0.299572    0.308182    0.310578    0.315460    0.318245    0.322144
     0.322591    0.323184    0.323387    0.323607    0.324056    0.324468
     0.324563    0.325176    0.325457    0.326770    0.326924    0.327270
     0.327606    0.328640    0.329624    0.330206    0.333762    0.335176
     0.339419    0.343858    0.352624    0.353060    0.358636    0.360428
     0.386593    0.444330    0.458740    0.519062    0.525265    0.579540
     0.639628    0.839180    1.000035

 Minimum Search - Taking Simple RFO Step
 Searching for Lamda that Minimizes Along All modes
 Value Taken    Lamda =  -0.00235031
 Calculated Step too Large.  Step scaled by  0.367762
 Step Taken.  Stepsize is  0.300000

                             Maximum     Tolerance    Cnvgd?
         Gradient           0.005030      0.000300      NO
         Displacement       0.102981      0.001200      NO
         Energy change     -0.000876      0.000001      NO


 New Cartesian Coordinates Obtained by Inverse Iteration

 Displacement from previous Coordinates is:  1.192989
 ----------------------------------------------------------------
             Standard Nuclear Orientation (Angstroms)
    I     Atom           X                Y                Z
 ----------------------------------------------------------------
    1      Fe     -2.1343097324    -2.9801008454     1.7990934771
    2      O      -2.1294907829    -1.5158002839     1.2520502823
    3      O      -1.4495656148    -0.2843194796     1.6963328587
    4      H       2.4202467000     2.7535747516    -0.4726381909
    5      H       2.4097842198     3.1663301905     1.2769168443
    6      C       1.9750606669     2.4959472895     0.5087523827
    7      H       0.8864733859     2.6911663606     0.4567127605
    8      H       4.2822453399     1.6472542501    -1.0763977705
    9      H       4.3067593283     1.6823657838     1.5081674467
   10      C       4.5300071880     0.7468580347    -0.4739648235
   11      C       2.3070114094     0.9915456117     0.9041067350
   12      C       3.8887448543     0.8195765878     0.9481448278
   13      H       5.6364027932     0.6817611422    -0.3963574627
   14      H      -2.7453147040    -0.9249997296    -1.3700490046
   15      H       2.3656655629     1.2443190464     3.0952696685
   16      C       1.7750574761     0.6555430155     2.3652731146
   17      C       1.6469974114    -0.0030812137    -0.1570131461
   18      H       4.3194656500    -0.6042047440    -2.2687613004
   19      H       0.7086816957     0.9129176429     2.5068837770
   20      C       4.0042081983    -0.5354606400    -1.1983361371
   21      C       0.2458968531    -0.1933865120    -0.2890580072
   22      C      -2.5241575381     0.1271107853    -1.6623980781
   23      C       2.4860751535    -0.7501477193    -1.1233282232
   24      H      -1.7179312981     0.1102202759    -2.4276708502
   25      H       1.9289221627    -1.2682709247    -3.1501156293
   26      H      -3.4309868124     0.5501173131    -2.1344889472
   27      H       4.1426136037    -0.1024981752     1.5149764514
   28      C       1.9610846885    -1.7727889273    -2.1508763662
   29      H       0.9617072288    -2.1907282514    -1.9282460261
   30      C      -0.8941990552     0.5487376573     0.4239354971
   31      H       1.9178602722    -0.4198526503     2.5950482432
   32      H       4.4468106321    -1.4489180206    -0.7071555922
   33      C      -2.1090527789     0.9612308924    -0.4336897561
   34      H       2.6991016462    -2.6007397808    -2.2436987501
   35      H      -4.4947224761     2.1823788100    -1.4265862525
   36      C      -2.8082248659     2.0935874230     0.0311758578
   37      C      -4.0313297117     2.6649302028    -0.5419023691
   38      H      -2.4047430995     2.6214930105     0.9236782890
   39      C      -4.6233035904     3.8003430537    -0.0031769102
   40      H      -5.5472848453     4.2318410031    -0.4456339025
   41      H      -4.1977427161     4.3196946145     0.8829284976
   42      H      -0.1057901361    -0.9265574408    -1.0451767944
   43      H      -0.5138256940     1.4192125957     1.0133604600
 ----------------------------------------------------------------
 Molecular Point Group                 C1    NOp =  1
 Largest Abelian Subgroup              C1    NOp =  1
 Nuclear Repulsion Energy =  1720.0848747577 hartrees
 There are       82 alpha and       78 beta electrons
 Applying Cartesian multipole field
    Component          Value
    ---------          -----
     (2,0,0)        1.00000E-12
     (0,2,0)        2.00000E-11
     (0,0,2)       -3.00000E-11
 Nucleus-field energy     =     0.0000000140 hartrees
 Requested basis set is STO-3G
 There are 65 shells and 132 basis functions
 A cutoff of  1.0D-12 yielded   1631 shell pairs
 There are      7316 function pairs (      7405 Cartesian)
 Smallest overlap matrix eigenvalue = 2.07E-01
 Guess MOs from SCF MO coefficient file

 -----------------------------------------------------------------------
  General SCF calculation program by
  Eric Jon Sundstrom, Paul Horn, Yuezhi Mao, Dmitri Zuev, Alec White,
  David Stuck, Shaama M.S., Shane Yost, Joonho Lee, David Small,
  Daniel Levine, Susi Lehtola, Hugh Burton, Evgeny Epifanovsky
 -----------------------------------------------------------------------
 Exchange:  B88      Correlation:  LYP
 Using SG-1 standard quadrature grid
 using 12 threads for integral computing
 -------------------------------------------------------
 OpenMP Integral computing Module                
 Release: version 1.0, May 2013, Q-Chem Inc. Pittsburgh 
 -------------------------------------------------------
 -------------------------------------------------------
 OpenMP BLAS3 based DFT computing Module                
 Release: version 1.0, May 2013, Q-Chem Inc. Pittsburgh 
 -------------------------------------------------------
 A unrestricted SCF calculation will be
 performed using DIIS, GDM
 SCF converges when RMS gradient is below 1.0e-08
 ---------------------------------------
  Cycle       Energy         DIIS error
 ---------------------------------------
    1   -2013.9780655249      5.97e-04  
    2   -2013.9884464949      7.98e-05  Done DIIS. Switching to GDM
 ---------------------------------------
  Cycle       Energy        RMS Gradient
 ---------------------------------------
    1   -2013.9884464949      1.93e-02   Normal BFGS step
    2   -2013.9872006654      6.32e-02  Line search: overstep
    3   -2013.9885569062      1.88e-03   Normal BFGS step
    4   -2013.9885201713      1.03e-02  Line search: overstep
    5   -2013.9885744661      2.63e-03   Normal BFGS step
    6   -2013.9885438323      7.30e-03  Line search: overstep
    7   -2013.9885817998      4.94e-04   Normal BFGS step
    8   -2013.9885814419      1.12e-03  Line search: overstep
    9   -2013.9885831194      5.22e-04   Normal BFGS step
   10   -2013.9885830672      6.45e-04   Normal BFGS step
   11   -2013.9885836609      2.33e-04   Normal BFGS step
   12   -2013.9885836017      3.85e-04  Line search: overstep
   13   -2013.9885838386      1.68e-04   Normal BFGS step
   14   -2013.9885838359      1.73e-04   Normal BFGS step
   15   -2013.9885838829      5.64e-05   Normal BFGS step
   16   -2013.9885838752      1.04e-04   Normal BFGS step
   17   -2013.9885838969      1.82e-05   Normal BFGS step
   18   -2013.9885838967      2.24e-05   Normal BFGS step
   19   -2013.9885838986      1.23e-05   Normal BFGS step
   20   -2013.9885838979      3.14e-05   Normal BFGS step
   21   -2013.9885838990      1.00e-05   Normal BFGS step
   22   -2013.9885838990      9.35e-06   Normal BFGS step
   23   -2013.9885838992      3.08e-06   Normal BFGS step
   24   -2013.9885838992      2.51e-06   Normal BFGS step
   25   -2013.9885838993      8.59e-07   Normal BFGS step
   26   -2013.9885838993      3.66e-07   Normal BFGS step
   27   -2013.9885838993      4.06e-07   Normal BFGS step
   28   -2013.9885838993      1.27e-06   Normal BFGS step
   29   -2013.9885838993      2.91e-07   Normal BFGS step
   30   -2013.9885838993      1.30e-06   Normal BFGS step
   31   -2013.9885838993      5.07e-08   Normal BFGS step
