
Running Job 1 of 1 car_2_diox_opt_vdz_mgga.in
qchem car_2_diox_opt_vdz_mgga.in_26979.0 /scr/c295_lal/156806/qchem26979/ 1
/usr/software/qchem_511/exe/qcprog.exe_s car_2_diox_opt_vdz_mgga.in_26979.0 /scr/c295_lal/156806/qchem26979/
Check license passed

                  Welcome to Q-Chem
     A Quantum Leap Into The Future Of Chemistry


 Q-Chem 5.1, Q-Chem, Inc., Pleasanton, CA (2018)

 Yihan Shao,  Zhengting Gan,  E. Epifanovsky,  A. T. B. Gilbert,  M. Wormit,  
 J. Kussmann,  A. W. Lange,  A. Behn,  Jia Deng,  Xintian Feng,  D. Ghosh,  
 M. Goldey,  P. R. Horn,  L. D. Jacobson,  I. Kaliman,  T. Kus,  A. Landau,  
 Jie Liu,  E. I. Proynov,  R. M. Richard,  R. P. Steele,  E. J. Sundstrom,  
 H. L. Woodcock III,  P. M. Zimmerman,  D. Zuev,  B. Albrecht,  E. Alguire,  
 S. A. Baeppler,  D. Barton,  Z. Benda,  Y. A. Bernard,  E. J. Berquist,  
 K. B. Bravaya,  H. Burton,  D. Casanova,  Chun-Min Chang,  Yunqing Chen,  
 A. Chien,  K. D. Closser,  M. P. Coons,  S. Coriani,  S. Dasgupta,  
 A. L. Dempwolff,  M. Diedenhofen,  Hainam Do,  R. G. Edgar,  Po-Tung Fang,  
 S. Faraji,  S. Fatehi,  Qingguo Feng,  K. D. Fenk,  J. Fosso-Tande,  
 Qinghui Ge,  A. Ghysels,  G. Gidofalvi,  J. Gomes,  J. Gonthier,  A. Gunina,  
 D. Hait,  M. W. D. Hanson-Heine,  P. H. P. Harbach,  A. W. Hauser,  
 J. E. Herr,  E. G. Hohenstein,  Z. C. Holden,  Kerwin Hui,  B. C. Huynh,  
 T.-C. Jagau,  Hyunjun Ji,  B. Kaduk,  K. Khistyaev,  Jaehoon Kim,  
 P. Klunzinger,  K. Koh,  D. Kosenkov,  L. Koulias,  T. Kowalczyk,  
 C. M. Krauter,  A. Kunitsa,  Ka Un Lao,  A. Laurent,  K. V. Lawler,  
 Joonho Lee,  D. Lefrancois,  S. Lehtola,  D. S. Levine,  Yi-Pei Li,  
 You-Sheng Lin,  Fenglai Liu,  E. Livshits,  A. Luenser,  P. Manohar,  
 E. Mansoor,  S. F. Manzer,  Shan-Ping Mao,  Yuezhi Mao,  N. Mardirossian,  
 A. V. Marenich,  T. Markovich,  L. A. Martinez-Martinez,  S. A. Maurer,  
 N. J. Mayhall,  S. C. McKenzie,  J.-M. Mewes,  A. F. Morrison,  
 J. W. Mullinax,  K. Nanda,  T. S. Nguyen-Beck,  R. Olivares-Amaya,  
 J. A. Parkhill,  T. M. Perrine,  F. Plasser,  P. Pokhilko,  S. Prager,  
 A. Prociuk,  E. Ramos,  D. R. Rehn,  F. Rob,  M. Schneider,  N. Sergueev,  
 S. M. Sharada,  S. Sharma,  D. W. Small,  T. Stauch,  T. Stein,  
 Yu-Chuan Su,  A. J. W. Thom,  A. Tkatchenko,  T. Tsuchimochi,  N. M. Tubman,  
 L. Vogt,  M. L. Vidal,  O. Vydrov,  M. A. Watson,  J. Wenzel,  
 M. de Wergifosse,  T. A. Wesolowski,  A. White,  J. Witte,  A. Yamada,  
 Jun Yang,  K. Yao,  S. Yeganeh,  S. R. Yost,  Zhi-Qiang You,  A. Zech,  
 Igor Ying Zhang,  Xing Zhang,  Yan Zhao,  Ying Zhu,  B. R. Brooks,  
 G. K. L. Chan,  C. J. Cramer,  M. S. Gordon,  W. J. Hehre,  A. Klamt,  
 M. W. Schmidt,  C. D. Sherrill,  D. G. Truhlar,  A. Aspuru-Guzik,  R. Baer,  
 A. T. Bell,  N. A. Besley,  Jeng-Da Chai,  A. E. DePrince, III,  
 R. A. DiStasio Jr.,  A. Dreuw,  B. D. Dunietz,  T. R. Furlani,  
 Chao-Ping Hsu,  Yousung Jung,  Jing Kong,  D. S. Lambrecht,  WanZhen Liang,  
 C. Ochsenfeld,  V. A. Rassolov,  L. V. Slipchenko,  J. E. Subotnik,  
 T. Van Voorhis,  J. M. Herbert,  A. I. Krylov,  P. M. W. Gill,  M. Head-Gordon

 Contributors to earlier versions of Q-Chem not listed above: 
 R. D. Adamson,  B. Austin,  J. Baker,  G. J. O. Beran,  K. Brandhorst,  
 S. T. Brown,  E. F. C. Byrd,  A. K. Chakraborty,  C.-L. Cheng,  
 Siu Hung Chien,  D. M. Chipman,  D. L. Crittenden,  H. Dachsel,  
 R. J. Doerksen,  A. D. Dutoi,  L. Fusti-Molnar,  W. A. Goddard III,  
 A. Golubeva-Zadorozhnaya,  S. R. Gwaltney,  G. Hawkins,  A. Heyden,  
 S. Hirata,  G. Kedziora,  F. J. Keil,  C. Kelley,  Jihan Kim,  R. A. King,  
 R. Z. Khaliullin,  P. P. Korambath,  W. Kurlancheek,  A. M. Lee,  M. S. Lee,  
 S. V. Levchenko,  Ching Yeh Lin,  D. Liotard,  R. C. Lochan,  I. Lotan,  
 P. E. Maslen,  N. Nair,  D. P. O'Neill,  D. Neuhauser,  E. Neuscamman,  
 C. M. Oana,  R. Olson,  B. Peters,  R. Peverati,  P. A. Pieniazek,  
 Y. M. Rhee,  J. Ritchie,  M. A. Rohrdanz,  E. Rosta,  N. J. Russ,  
 H. F. Schaefer III,  N. E. Schultz,  N. Shenvi,  A. C. Simmonett,  A. Sodt,  
 D. Stuck,  K. S. Thanthiriwatte,  V. Vanovschi,  Tao Wang,  A. Warshel,  
 C. F. Williams,  Q. Wu,  X. Xu,  W. Zhang

 Please cite Q-Chem as follows:
 Y. Shao et al., Mol. Phys. 113, 184-215 (2015)
 DOI: 10.1080/00268976.2014.952696

 Q-Chem 5.1.1 for Intel X86 EM64T Linux

 Parts of Q-Chem use Armadillo 8.300.2 (Tropical Shenanigans).
 http://arma.sourceforge.net/

 Q-Chem begins on Tue Nov 27 07:39:30 2018  

Host: cub-0-27.local
0

     Scratch files written to /scr/c295_lal/156806/qchem26979//
 Aug318 |scratch|qcdevops|jenkins|workspace|build_RNUM -1
Processing $rem in /usr/software/qchem_511/config/preferences.
 MEM_TOTAL  2000 
Input Ideriv = 2
Curr. Ideriv = -1
Max.  Ideriv = 2
Input Ideriv = 1
Curr. Ideriv = 2
Max.  Ideriv = 1

Checking the input file for inconsistencies... 	...done.

--------------------------------------------------------------
User input:
--------------------------------------------------------------
$molecule
0 1
O
C  1 1.480587
H  2 1.101389 1 107.824262
C  2 1.526638 1 115.940402 3 123.946151 0
C  4 1.364953 2 117.992507 1 -157.276192 0
C  5 1.525210 4 123.180227 2 177.779237 0
H  6 1.106463 5 108.599034 4 -139.104550 0
H  6 1.109355 5 108.582521 4 107.291623 0
C  5 1.525847 4 124.545539 2 -2.816857 0
H  9 1.096190 5 114.595028 4 -18.208567 0
H  9 1.103748 5 109.543061 4 -138.222610 0
H  9 1.106225 5 110.957400 4 104.872490 0
O  1 1.535112 2 90.213929 3 103.704194 0
C  13 1.486571 1 90.352997 2 8.544094 0
H  14 1.102336 13 110.044752 1 105.131294 0
C  14 1.503799 13 112.806590 1 -130.497627 0
C  16 1.371312 14 118.325590 13 -132.228727 0
H  17 1.097973 16 117.124000 14 2.750881 0
C  17 1.445530 16 127.477982 14 -176.408465 0
H  19 1.093229 17 117.854276 16 -0.677980 0
C  19 1.372813 17 123.070893 16 178.554158 0
H  21 1.097504 19 117.561537 17 0.040850 0
C  21 1.453992 19 126.698195 17 -179.633535 0
C  23 1.379765 21 118.274201 19 178.410551 0
H  24 1.097517 23 116.826013 21 -0.221598 0
C  24 1.448910 23 128.158463 21 -179.937406 0
H  26 1.094860 24 118.093585 23 -0.708178 0
C  26 1.357789 24 123.840155 23 179.276311 0
H  28 1.091585 26 121.638237 24 -179.961506 0
H  28 1.093941 26 121.629244 24 -0.094075 0
C  16 1.517439 14 117.056265 13 48.772293 0
H  31 1.098572 16 112.252421 14 -159.025291 0
H  31 1.100386 16 109.716237 14 -38.416862 0
H  31 1.105916 16 111.920940 14 80.161996 0
C  23 1.520546 21 118.401182 19 -1.358401 0
H  35 1.096884 23 112.708796 21 -179.207713 0
H  35 1.103162 23 110.854144 21 -58.397880 0
H  35 1.103421 23 110.847164 21 60.099209 0
C  6 1.538096 5 113.614210 4 -15.306147 0
H  39 1.103203 6 110.439077 5 167.445241 0
H  39 1.103449 6 109.670992 5 -75.285755 0
C  39 1.537174 6 108.979638 5 45.344244 0
H  42 1.103594 39 111.008973 6 175.810603 0
H  42 1.105961 39 108.487756 6 59.224409 0
C  4 1.556078 2 119.292478 1 22.284430 0
C  45 1.560860 4 112.133896 2 48.899769 0
H  46 1.096751 45 112.170502 4 -63.574628 0
H  46 1.103126 45 111.228549 4 58.677533 0
H  46 1.103340 45 109.201489 4 176.697368 0
C  45 1.563056 4 109.789212 2 -71.563075 0
H  50 1.098777 45 111.157164 4 60.269280 0
H  50 1.101626 45 111.867882 4 -60.558084 0
H  50 1.103680 45 109.908353 4 179.570189 0
$end

$rem
BASIS = VDZ
METHOD  = B97M-rV
JOBTYPE = OPT
$end
--------------------------------------------------------------
 ----------------------------------------------------------------
             Standard Nuclear Orientation (Angstroms)
    I     Atom           X                Y                Z
 ----------------------------------------------------------------
    1      O      -2.9083683852    -2.2436665862     0.1099765953
    2      C      -2.1861136430    -1.0693531006    -0.4299065306
    3      H      -1.9585740825    -1.2709269002    -1.4885148062
    4      C      -2.8982553686     0.2739625066    -0.2921352531
    5      C      -2.5449477474     1.2770905428    -1.1477079035
    6      C      -3.2128624759     2.6482781392    -1.1475213653
    7      H      -3.3575808299     2.9704668424    -2.1960972605
    8      H      -2.5054223384     3.3860466017    -0.7163663309
    9      C      -1.4419144540     1.1712688488    -2.1966732939
   10      H      -0.7309467300     0.3536784141    -2.0302302329
   11      H      -0.8556419821     2.1063206103    -2.2115876982
   12      H      -1.8696429493     1.0595019202    -3.2107197616
   13      O      -1.6342275590    -2.7020633762     0.8331684029
   14      C      -0.9634282823    -1.4228784895     0.4815895436
   15      H      -0.9039723947    -0.7711659702     1.3686523635
   16      C       0.3971970156    -1.6259082502    -0.1257729078
   17      C       1.4423315709    -0.8796000655     0.3550747353
   18      H       1.2307367326    -0.2044239041     1.1946636134
   19      C       2.8050520319    -0.8613560328    -0.1268143405
   20      H       3.0596301583    -1.5167916072    -0.9639187736
   21      C       3.7776815685    -0.0529632562     0.4071411224
   22      H       3.4919686230     0.6039909453     1.2385822327
   23      C       5.1651313722     0.0346078799    -0.0187779713
   24      C       5.9899988716     0.9358633906     0.6223800186
   25      H       5.5389001305     1.5391579235     1.4205586939
   26      C       7.3929471438     1.1991205477     0.3738402774
   27      H       7.8956597849     0.6199966290    -0.4075776049
   28      C       8.1209402348     2.1222994371     1.0530734968
   29      H       9.1771159435     2.2916973809     0.8354614083
   30      H       7.6771279824     2.7342642073     1.8437926101
   31      C       0.5062007236    -2.6360273227    -1.2528925864
   32      H       1.5346992129    -2.9968949559    -1.3900999041
   33      H      -0.1401046544    -3.5008277367    -1.0401510739
   34      H       0.1728447139    -2.2139693811    -2.2192212385
   35      C       5.6324677090    -0.8667350328    -1.1506957422
   36      H       6.6955003927    -0.7340418808    -1.3862982681
   37      H       5.4750024630    -1.9288395391    -0.8975058684
   38      H       5.0589249244    -0.6690810527    -2.0723895534
   39      C      -4.5428225680     2.6856733127    -0.3758044097
   40      H      -4.8661349527     3.7282109016    -0.2156752843
   41      H      -5.3323688838     2.1976839750    -0.9725310785
   42      C      -4.3640019430     1.9540941569     0.9642400034
   43      H      -5.2779101614     2.0250312663     1.5787800035
   44      H      -3.5632268139     2.4595173070     1.5356036054
   45      C      -3.9949788974     0.4459543887     0.7982752366
   46      C      -3.5190689831    -0.0601517662     2.1960056302
   47      H      -3.3131939796    -1.1374048354     2.1980215089
   48      H      -2.6149383353     0.4771621497     2.5287645510
   49      H      -4.3077756186     0.1382458249     2.9416190652
   50      C      -5.2735623820    -0.3571989861     0.3941552190
   51      H      -5.0534098206    -1.4290137844     0.2938717030
   52      H      -5.6943563609    -0.0051831213    -0.5611442639
   53      H      -6.0500916055    -0.2428136227     1.1700597854
 ----------------------------------------------------------------
 Molecular Point Group                 C1    NOp =  1
 Largest Abelian Subgroup              C1    NOp =  1
 Nuclear Repulsion Energy =  1870.3802883404 hartrees
 There are       86 alpha and       86 beta electrons
 Requested basis set is VDZ
 There are 175 shells and 267 basis functions

 Total QAlloc Memory Limit   2000 MB
 Mega-Array Size       188 MB
 MEM_STATIC part       192 MB
 A cutoff of  1.0D-11 yielded   9928 shell pairs
 There are     23648 function pairs
 
 -------------------------------------------------------
 OpenMP Integral Computing Module                       
 Release: version 1.0, May 2013, Q-Chem Inc. Pittsburgh 
 -------------------------------------------------------
 Integral Job Info:
 Integral job number is                      11
 Integral operator is                         1
 short-range coefficients                     0
 long-range coefficients              100000000
 Omega coefficients                           0
 if combine SR and LR in K                    0
 Integral screening is                        0
 Integral computing path is                   2
 max size of driver memory is            800000
 size of driver memory is                 45569
 size of scratch memory is              1477076
 max col of scratch BK array                289
 max len of scratch array in speh3           22
 max len of scratch index in speh4            8
 max int batch size is                      520
 min int batch size is                       52
 fixed nKL is                                52
 max L of basis functions is                  1
 order of int derivative is                   0
 number of shells is                        175
 number of basis is                         267
 number of cartesian basis is               267
 number of contracted shell pairs          9928
 number of primitive shell pairs          26844
 maxK2 (contraction) of shell pair           25
 max number of K2 of shell pair               1
 max number of CS2 of shell pair           2566
 max number of PS2 of shell pair           6140
 mem total for path MDJ                  600848
 -------------------------------------------------------
 Smallest overlap matrix eigenvalue = 8.66E-04

 Scale SEOQF with 1.000000e-02/1.000000e-01/1.000000e-01

 Standard Electronic Orientation quadrupole field applied
 Nucleus-field energy     =     0.0000000220 hartrees
 Guess from superposition of atomic densities
 Warning:  Energy on first SCF cycle will be non-variational
 SAD guess density has 172.000000 electrons

 -----------------------------------------------------------------------
  General SCF calculation program by
  Eric Jon Sundstrom, Paul Horn, Yuezhi Mao, Dmitri Zuev, Alec White,
  David Stuck, Shaama M.S., Shane Yost, Joonho Lee, David Small,
  Daniel Levine, Susi Lehtola, Hugh Burton, Evgeny Epifanovsky
 -----------------------------------------------------------------------
 Exchange:  B97M-V      Correlation:  B97M-V
 Using SG-2 standard quadrature grid
 Nonlocal Correlation:  rVV10 with C = 0.0100 and b = 6.00 and scale = 1.00000
 Grid used for NLC:  SG-1 standard quadrature
 using 12 threads for integral computing
 -------------------------------------------------------
 OpenMP Integral computing Module                
 Release: version 1.0, May 2013, Q-Chem Inc. Pittsburgh 
 -------------------------------------------------------
 -------------------------------------------------------
 OpenMP BLAS3 based DFT computing Module                
 Release: version 1.0, May 2013, Q-Chem Inc. Pittsburgh 
 -------------------------------------------------------
 -------------------------------------------------------
 OpenMP BLAS3 based DFT computing Module                
 Release: version 1.0, May 2013, Q-Chem Inc. Pittsburgh 
 -------------------------------------------------------
 -------------------------------------------------------
 OpenMP BLAS3 based DFT computing Module                
 Release: version 1.0, May 2013, Q-Chem Inc. Pittsburgh 
 -------------------------------------------------------
 Nonlocal correlation = 0.604385802266
 A restricted SCF calculation will be
 performed using DIIS
 SCF converges when DIIS error is below 1.0e-08
 ---------------------------------------
  Cycle       Energy         DIIS error
 ---------------------------------------
 Nonlocal correlation = 6.397519349952e-01
    1    -971.0910269144      5.71e-02  
 Nonlocal correlation = 6.253789006295e-01
    2    -967.0929206665      6.10e-03  
 Nonlocal correlation = 6.309259058374e-01
    3    -966.9097196773      7.38e-03  
 Nonlocal correlation = 6.312942543588e-01
    4    -967.4756096396      1.39e-03  
 Nonlocal correlation = 6.314044396460e-01
    5    -967.4920763779      7.33e-04  
 Nonlocal correlation = 6.313431478107e-01
    6    -967.4972821309      2.95e-04  
 Nonlocal correlation = 6.313349367904e-01
    7    -967.4980511447      8.37e-05  
 Nonlocal correlation = 6.313359323088e-01
    8    -967.4981021892      3.90e-05  
 Nonlocal correlation = 6.313350871437e-01
    9    -967.4981158415      1.32e-05  
 Nonlocal correlation = 6.313354212308e-01
   10    -967.4981174484      3.14e-06  
 Nonlocal correlation = 6.313355890003e-01
   11    -967.4981175259      1.57e-06  
 Nonlocal correlation = 6.313356298029e-01
   12    -967.4981175493      5.98e-07  
 Nonlocal correlation = 6.313356138132e-01
   13    -967.4981175530      1.68e-07  
 Nonlocal correlation = 6.313356268424e-01
   14    -967.4981175532      7.06e-08  
 Nonlocal correlation = 6.313356266509e-01
   15    -967.4981175533      1.63e-08  
   16    -967.4981175533      6.85e-09  Convergence criterion met
 ---------------------------------------
 SCF time:   CPU 20238.65s  wall 1693.00s 
 SCF   energy in the final basis set =     -967.4981175533
 Total energy in the final basis set =     -967.4981175533
 
 --------------------------------------------------------------
 
                    Orbital Energies (a.u.)
 --------------------------------------------------------------
 
 Alpha MOs
 -- Occupied --
-19.201 -19.200 -10.258 -10.257 -10.219 -10.216 -10.214 -10.209
-10.206 -10.206 -10.205 -10.204 -10.203 -10.202 -10.194 -10.192
-10.192 -10.189 -10.188 -10.184 -10.181 -10.166 -10.163  -1.089
 -0.878  -0.827  -0.821  -0.801  -0.768  -0.763  -0.747  -0.729
 -0.700  -0.675  -0.670  -0.660  -0.649  -0.647  -0.612  -0.581
 -0.558  -0.542  -0.531  -0.520  -0.512  -0.493  -0.476  -0.467
 -0.462  -0.452  -0.441  -0.431  -0.423  -0.419  -0.409  -0.403
 -0.401  -0.398  -0.393  -0.389  -0.386  -0.381  -0.376  -0.372
 -0.361  -0.356  -0.354  -0.351  -0.344  -0.337  -0.334  -0.328
 -0.326  -0.323  -0.322  -0.318  -0.316  -0.309  -0.299  -0.293
 -0.289  -0.272  -0.247  -0.221  -0.206  -0.190
 -- Virtual --
 -0.099  -0.062  -0.024  -0.016   0.029   0.033   0.035   0.043
  0.048   0.054   0.061   0.063   0.067   0.071   0.076   0.079
  0.082   0.094   0.109   0.111   0.113   0.120   0.121   0.125
  0.127   0.128   0.133   0.142   0.143   0.146   0.156   0.158
  0.165   0.170   0.175   0.179   0.182   0.183   0.192   0.200
  0.201   0.207   0.212   0.215   0.225   0.235   0.244   0.249
  0.265   0.284   0.288   0.301   0.321   0.331   0.338   0.349
  0.361   0.365   0.378   0.398   0.404   0.418   0.429   0.437
  0.440   0.441   0.451   0.454   0.457   0.466   0.467   0.475
  0.484   0.485   0.497   0.503   0.506   0.508   0.516   0.526
  0.532   0.539   0.562   0.565   0.567   0.587   0.593   0.598
  0.605   0.608   0.613   0.617   0.623   0.628   0.634   0.640
  0.644   0.646   0.650   0.651   0.652   0.662   0.666   0.672
  0.673   0.676   0.679   0.687   0.689   0.691   0.693   0.697
  0.699   0.700   0.703   0.707   0.709   0.712   0.716   0.718
  0.720   0.721   0.725   0.731   0.738   0.739   0.745   0.747
  0.754   0.762   0.767   0.772   0.784   0.788   0.799   0.812
  0.815   0.819   0.822   0.834   0.852   0.857   0.872   0.881
  0.891   0.896   0.907   0.914   0.948   0.980   0.989   0.991
  1.013   1.042   1.053   1.076   1.094   1.104   1.109   1.130
  1.136   1.155   1.162   1.187   1.194   1.210   1.219   1.234
  1.256   1.260   1.301   1.314   1.328   1.347   1.366   1.387
  1.396   1.423   1.516   1.634   1.911
 --------------------------------------------------------------
 
          Ground-State Mulliken Net Atomic Charges

     Atom                 Charge (a.u.)
  ----------------------------------------
      1 O                    -0.311521
      2 C                     0.123026
      3 H                     0.109547
      4 C                     0.058502
      5 C                    -0.141101
      6 C                    -0.175398
      7 H                     0.105342
      8 H                     0.108001
      9 C                    -0.271774
     10 H                     0.130737
     11 H                     0.119526
     12 H                     0.127109
     13 O                    -0.295443
     14 C                     0.073930
     15 H                     0.099496
     16 C                    -0.034360
     17 C                    -0.093232
     18 H                     0.072823
     19 C                    -0.066493
     20 H                     0.084215
     21 C                    -0.112235
     22 H                     0.073374
     23 C                    -0.045126
     24 C                    -0.129616
     25 H                     0.072513
     26 C                    -0.069375
     27 H                     0.087169
     28 C                    -0.209089
     29 H                     0.110520
     30 H                     0.106870
     31 C                    -0.265027
     32 H                     0.126161
     33 H                     0.148871
     34 H                     0.127704
     35 C                    -0.252415
     36 H                     0.122956
     37 H                     0.130355
     38 H                     0.128567
     39 C                    -0.146582
     40 H                     0.096891
     41 H                     0.102726
     42 C                    -0.124071
     43 H                     0.092519
     44 H                     0.088314
     45 C                    -0.335104
     46 C                    -0.227876
     47 H                     0.155358
     48 H                     0.101839
     49 H                     0.101485
     50 C                    -0.231238
     51 H                     0.146551
     52 H                     0.104492
     53 H                     0.099584
  ----------------------------------------
  Sum of atomic charges =    -0.000000

 -----------------------------------------------------------------
                    Cartesian Multipole Moments
 -----------------------------------------------------------------
    Charge (ESU x 10^10)
                -0.0000
    Dipole Moment (Debye)
         X       2.7027      Y       3.1423      Z      -1.9444
       Tot       4.5782
    Quadrupole Moments (Debye-Ang)
        XX    -137.9362     XY     -10.3284     YY    -151.4200
        XZ      -0.6271     YZ       6.8498     ZZ    -140.9875
    Octopole Moments (Debye-Ang^2)
       XXX      79.2512    XXY      33.3897    XYY      16.2043
       YYY      13.6443    XXZ     -20.1891    XYZ      17.8644
       YYZ     -10.9535    XZZ     -11.0620    YZZ      -0.4023
       ZZZ      -6.3485
    Hexadecapole Moments (Debye-Ang^3)
      XXXX  -13997.3974   XXXY     103.8827   XXYY   -2904.6370
      XYYY     -69.2230   YYYY   -2469.7573   XXXZ    -194.5256
      XXYZ     121.1754   XYYZ      46.7062   YYYZ      38.1507
      XXZZ   -2669.5267   XYZZ      20.8659   YYZZ    -588.8090
      XZZZ      -9.2465   YZZZ      -3.7688   ZZZZ   -1142.6108
 -----------------------------------------------------------------
 Calculating analytic gradient of the SCF energy
 Gradient of SCF Energy
            1           2           3           4           5           6
    1   0.0153722  -0.0057101   0.0003661  -0.0002078  -0.0007946   0.0027207
    2   0.0015763  -0.0130685  -0.0001832   0.0048887  -0.0036011   0.0063695
    3   0.0015376   0.0006817  -0.0006600  -0.0029321   0.0021346  -0.0041772
            7           8           9          10          11          12
    1  -0.0000040  -0.0003751   0.0073829  -0.0011472   0.0000433   0.0001726
    2   0.0005903  -0.0004496  -0.0009818   0.0019704  -0.0004704   0.0001811
    3   0.0001148  -0.0004841  -0.0063033  -0.0005125  -0.0003328   0.0001845
           13          14          15          16          17          18
    1  -0.0063033  -0.0056503   0.0000342   0.0041344  -0.0011460   0.0000537
    2   0.0107144  -0.0099574   0.0003372   0.0014609   0.0010826   0.0002843
    3  -0.0069275   0.0071001   0.0005920   0.0011063   0.0026591  -0.0001423
           19          20          21          22          23          24
    1   0.0010918  -0.0001196  -0.0009759  -0.0003560  -0.0007960  -0.0021105
    2  -0.0012917   0.0005217   0.0016393  -0.0000216   0.0020307   0.0011803
    3  -0.0018446   0.0005929   0.0025112   0.0000443   0.0025140   0.0023214
           25          26          27          28          29          30
    1   0.0002651   0.0030691   0.0005212   0.0014776  -0.0000187   0.0007295
    2   0.0002874  -0.0000750   0.0003329   0.0019748   0.0002701  -0.0002282
    3  -0.0001039  -0.0013212   0.0001975   0.0021087  -0.0000724  -0.0007380
           31          32          33          34          35          36
    1   0.0017136  -0.0003193   0.0005509   0.0003583   0.0035496  -0.0000728
    2  -0.0068758  -0.0002408   0.0006178  -0.0005428  -0.0052094  -0.0001988
    3  -0.0072037  -0.0002461  -0.0004558   0.0009075  -0.0069416  -0.0004076
           37          38          39          40          41          42
    1  -0.0000027   0.0002639  -0.0073852  -0.0004467   0.0009496  -0.0013672
    2   0.0001685  -0.0000475   0.0052047   0.0004584   0.0006624   0.0032849
    3   0.0000082   0.0004198  -0.0019360  -0.0000945   0.0004563   0.0069728
           43          44          45          46          47          48
    1   0.0007366  -0.0018050   0.0000408   0.0009138  -0.0003298  -0.0011839
    2   0.0008616   0.0002838   0.0011664  -0.0028420   0.0019306  -0.0008212
    3  -0.0000689  -0.0005397   0.0006489   0.0084809   0.0007354   0.0008906
           49          50          51          52          53
    1   0.0012704  -0.0066172  -0.0016978  -0.0009723   0.0001301
    2  -0.0001063  -0.0041037   0.0008262  -0.0012037  -0.0006457
    3   0.0002731  -0.0016739  -0.0000051   0.0011539  -0.0012212
 Max gradient component =       1.537E-02
 RMS gradient           =       3.223E-03
 Gradient time:  CPU 2417.91 s  wall 301.48 s
 Geometry Optimization Parameters
   NAtoms,    NIC,     NZ,  NCons,   NDum,   NFix, NCnnct, MaxDiis
       53     393      53       0       0       0       0       0


** GEOMETRY OPTIMIZATION IN DELOCALIZED INTERNAL COORDINATES **
   Searching for a Minimum

   Optimization Cycle:   1

                       Coordinates (Angstroms)
     ATOM                X               Y               Z
      1  O        -2.9083683852   -2.2436665862    0.1099765953
      2  C        -2.1861136430   -1.0693531006   -0.4299065306
      3  H        -1.9585740825   -1.2709269002   -1.4885148062
      4  C        -2.8982553686    0.2739625066   -0.2921352531
      5  C        -2.5449477474    1.2770905428   -1.1477079035
      6  C        -3.2128624759    2.6482781392   -1.1475213653
      7  H        -3.3575808299    2.9704668424   -2.1960972605
      8  H        -2.5054223384    3.3860466017   -0.7163663309
      9  C        -1.4419144540    1.1712688488   -2.1966732939
     10  H        -0.7309467300    0.3536784141   -2.0302302329
     11  H        -0.8556419821    2.1063206103   -2.2115876982
     12  H        -1.8696429493    1.0595019202   -3.2107197616
     13  O        -1.6342275590   -2.7020633762    0.8331684029
     14  C        -0.9634282823   -1.4228784895    0.4815895436
     15  H        -0.9039723947   -0.7711659702    1.3686523635
     16  C         0.3971970156   -1.6259082502   -0.1257729078
     17  C         1.4423315709   -0.8796000655    0.3550747353
     18  H         1.2307367326   -0.2044239041    1.1946636134
     19  C         2.8050520319   -0.8613560328   -0.1268143405
     20  H         3.0596301583   -1.5167916072   -0.9639187736
     21  C         3.7776815685   -0.0529632562    0.4071411224
     22  H         3.4919686230    0.6039909453    1.2385822327
     23  C         5.1651313722    0.0346078799   -0.0187779713
     24  C         5.9899988716    0.9358633906    0.6223800186
     25  H         5.5389001305    1.5391579235    1.4205586939
     26  C         7.3929471438    1.1991205477    0.3738402774
     27  H         7.8956597849    0.6199966290   -0.4075776049
     28  C         8.1209402348    2.1222994371    1.0530734968
     29  H         9.1771159435    2.2916973809    0.8354614083
     30  H         7.6771279824    2.7342642073    1.8437926101
     31  C         0.5062007236   -2.6360273227   -1.2528925864
     32  H         1.5346992129   -2.9968949559   -1.3900999041
     33  H        -0.1401046544   -3.5008277367   -1.0401510739
     34  H         0.1728447139   -2.2139693811   -2.2192212385
     35  C         5.6324677090   -0.8667350328   -1.1506957422
     36  H         6.6955003927   -0.7340418808   -1.3862982681
     37  H         5.4750024630   -1.9288395391   -0.8975058684
     38  H         5.0589249244   -0.6690810527   -2.0723895534
     39  C        -4.5428225680    2.6856733127   -0.3758044097
     40  H        -4.8661349527    3.7282109016   -0.2156752843
     41  H        -5.3323688838    2.1976839750   -0.9725310785
     42  C        -4.3640019430    1.9540941569    0.9642400034
     43  H        -5.2779101614    2.0250312663    1.5787800035
     44  H        -3.5632268139    2.4595173070    1.5356036054
     45  C        -3.9949788974    0.4459543887    0.7982752366
     46  C        -3.5190689831   -0.0601517662    2.1960056302
     47  H        -3.3131939796   -1.1374048354    2.1980215089
     48  H        -2.6149383353    0.4771621497    2.5287645510
     49  H        -4.3077756186    0.1382458249    2.9416190652
     50  C        -5.2735623820   -0.3571989861    0.3941552190
     51  H        -5.0534098206   -1.4290137844    0.2938717030
     52  H        -5.6943563609   -0.0051831213   -0.5611442639
     53  H        -6.0500916055   -0.2428136227    1.1700597854
   Point Group: c1    Number of degrees of freedom:   153


   Energy is   -967.498117553


 Attempting to Generate Delocalized Internal Coordinates

153 Hessian modes will be used to form the next step
  Hessian Eigenvalues:
     0.002000    0.002000    0.003260    0.003671    0.005655    0.005760
     0.006461    0.006498    0.006872    0.008676    0.008903    0.009836
     0.012653    0.014172    0.014261    0.015265    0.015937    0.016384
     0.020581    0.020720    0.021252    0.021370    0.021962    0.025084
     0.026003    0.026202    0.027991    0.027991    0.028783    0.030711
     0.036152    0.037572    0.041592    0.046622    0.048262    0.049714
     0.050871    0.052276    0.052400    0.053116    0.055173    0.056213
     0.058380    0.060219    0.066356    0.068475    0.069328    0.069813
     0.072093    0.072761    0.073041    0.077479    0.078194    0.084144
     0.084199    0.095452    0.096473    0.098029    0.119770    0.120985
     0.130203    0.132420    0.159993    0.159993    0.159999    0.159999
     0.160000    0.160000    0.160000    0.160000    0.160000    0.160000
     0.160000    0.160000    0.160000    0.160000    0.160000    0.160000
     0.160000    0.160000    0.160000    0.160000    0.160000    0.160000
     0.160609    0.188561    0.207387    0.220000    0.220000    0.220000
     0.220002    0.220003    0.229511    0.249954    0.249974    0.249984
     0.249993    0.249998    0.249999    0.252992    0.260612    0.265703
     0.267481    0.267796    0.276698    0.280942    0.282850    0.293274
     0.297361    0.298103    0.303140    0.306146    0.315990    0.319820
     0.326684    0.329774    0.330030    0.330314    0.330363    0.332710
     0.332784    0.332878    0.333036    0.333066    0.333154    0.333304
     0.333348    0.333388    0.334251    0.335029    0.335290    0.336395
     0.338177    0.338405    0.339073    0.339582    0.339597    0.340291
     0.340440    0.341070    0.341232    0.342570    0.343611    0.344421
     0.346301    0.377267    0.383881    0.388365    0.491453    0.501081
     0.504398    0.507253    0.533970

 Minimum Search - Taking Simple RFO Step
 Searching for Lamda that Minimizes Along All modes
 Value Taken    Lamda =  -0.00852121
 Step Taken.  Stepsize is  0.215216

                             Maximum     Tolerance    Cnvgd?
         Gradient           0.018824      0.000300      NO
         Displacement       0.080884      0.001200      NO
         Energy change     *********      0.000001      NO


 New Cartesian Coordinates Obtained by Inverse Iteration

 Displacement from previous Coordinates is:  1.503963
 ----------------------------------------------------------------
             Standard Nuclear Orientation (Angstroms)
    I     Atom           X                Y                Z
 ----------------------------------------------------------------
    1      O      -2.9579385196    -2.2304069082     0.1196672573
    2      C      -2.1850199521    -1.0790700610    -0.4325133877
    3      H      -1.9367630567    -1.3008020773    -1.4811893331
    4      C      -2.8551848485     0.2553864596    -0.3164894724
    5      C      -2.4707566616     1.2562101743    -1.1481157653
    6      C      -3.1047117577     2.6261222313    -1.1275816247
    7      H      -3.2432928593     2.9637440629    -2.1720366398
    8      H      -2.3862028516     3.3460189363    -0.6818570465
    9      C      -1.3676924411     1.1329693251    -2.1713998509
   10      H      -0.6833455030     0.2888724906    -2.0027375639
   11      H      -0.7551730855     2.0517993649    -2.1633189389
   12      H      -1.7833887512     1.0451912798    -3.1932251092
   13      O      -1.6840039610    -2.7036078238     0.8715073373
   14      C      -1.0072010089    -1.4139095154     0.5167176342
   15      H      -0.9685360642    -0.7492549451     1.3939911410
   16      C       0.3416916820    -1.6085172259    -0.0684205137
   17      C       1.3761096359    -0.8554395164     0.4068808397
   18      H       1.1653010019    -0.1839509183     1.2495210287
   19      C       2.7247618530    -0.8291920051    -0.0885184683
   20      H       2.9756259811    -1.4814209628    -0.9307800175
   21      C       3.6894508350    -0.0154690710     0.4374888412
   22      H       3.4129265965     0.6369429617     1.2753680960
   23      C       5.0596746083     0.0760024401    -0.0093762590
   24      C       5.8982798826     0.9665011973     0.6153681481
   25      H       5.4714397999     1.5655491241     1.4299743112
   26      C       7.2883802800     1.2138745878     0.3281268992
   27      H       7.7591157702     0.6326608458    -0.4716085978
   28      C       8.0412510518     2.1226705684     0.9932721623
   29      H       9.0941177763     2.2808672307     0.7526744861
   30      H       7.6219502558     2.7294992396     1.8030834007
   31      C       0.4476352804    -2.6013779806    -1.1884493850
   32      H       1.4782433740    -2.9555030508    -1.3296582611
   33      H      -0.1946625732    -3.4705707509    -0.9742891806
   34      H       0.1077117386    -2.1752804666    -2.1526668330
   35      C       5.4943684473    -0.8124281919    -1.1430817188
   36      H       6.5536945942    -0.6813238064    -1.3956923567
   37      H       5.3381750440    -1.8755497727    -0.8922648608
   38      H       4.9040653309    -0.6076821057    -2.0534851501
   39      C      -4.4227062736     2.6641627975    -0.3605627745
   40      H      -4.7293695693     3.7080279187    -0.1831813806
   41      H      -5.2228189429     2.1946251277    -0.9615278434
   42      C      -4.2503499729     1.9197616079     0.9595518580
   43      H      -5.1602145314     1.9933428434     1.5813753910
   44      H      -3.4286122557     2.3919971786     1.5339316816
   45      C      -3.9230616044     0.4252189875     0.7599794201
   46      C      -3.4358566589    -0.1304642231     2.1127582632
   47      H      -3.2476554463    -1.2130070453     2.0677688859
   48      H      -2.5136405362     0.3835490551     2.4383029676
   49      H      -4.2114098787     0.0551320808     2.8769440120
   50      C      -5.1980159840    -0.3350251184     0.3401595126
   51      H      -4.9835670055    -1.4063783395     0.2083772665
   52      H      -5.6026264348     0.0574623786    -0.6081338997
   53      H      -5.9719777081    -0.2286251207     1.1219915111
 ----------------------------------------------------------------
 Molecular Point Group                 C1    NOp =  1
 Largest Abelian Subgroup              C1    NOp =  1
 Nuclear Repulsion Energy =  1894.0557008423 hartrees
 There are       86 alpha and       86 beta electrons
 Applying Cartesian multipole field
    Component          Value
    ---------          -----
     (2,0,0)        1.00000E-12
     (0,2,0)        2.00000E-11
     (0,0,2)       -3.00000E-11
 Nucleus-field energy     =     0.0000000219 hartrees
 Requested basis set is VDZ
 There are 175 shells and 267 basis functions
 A cutoff of  1.0D-11 yielded  10093 shell pairs
 There are     24033 function pairs
 Smallest overlap matrix eigenvalue = 7.72E-04
 Guess MOs from SCF MO coefficient file

 -----------------------------------------------------------------------
  General SCF calculation program by
  Eric Jon Sundstrom, Paul Horn, Yuezhi Mao, Dmitri Zuev, Alec White,
  David Stuck, Shaama M.S., Shane Yost, Joonho Lee, David Small,
  Daniel Levine, Susi Lehtola, Hugh Burton, Evgeny Epifanovsky
 -----------------------------------------------------------------------
 Exchange:  B97M-V      Correlation:  B97M-V
 Using SG-2 standard quadrature grid
 Nonlocal Correlation:  rVV10 with C = 0.0100 and b = 6.00 and scale = 1.00000
 Grid used for NLC:  SG-1 standard quadrature
 using 12 threads for integral computing
 -------------------------------------------------------
 OpenMP Integral computing Module                
 Release: version 1.0, May 2013, Q-Chem Inc. Pittsburgh 
 -------------------------------------------------------
 -------------------------------------------------------
 OpenMP BLAS3 based DFT computing Module                
 Release: version 1.0, May 2013, Q-Chem Inc. Pittsburgh 
 -------------------------------------------------------
 -------------------------------------------------------
 OpenMP BLAS3 based DFT computing Module                
 Release: version 1.0, May 2013, Q-Chem Inc. Pittsburgh 
 -------------------------------------------------------
 -------------------------------------------------------
 OpenMP BLAS3 based DFT computing Module                
 Release: version 1.0, May 2013, Q-Chem Inc. Pittsburgh 
 -------------------------------------------------------
 Nonlocal correlation = 0.629217667872
 A restricted SCF calculation will be
 performed using DIIS
 SCF converges when DIIS error is below 1.0e-08
 ---------------------------------------
  Cycle       Energy         DIIS error
 ---------------------------------------
 Nonlocal correlation = 6.292862968233e-01
    1    -967.4953330658      5.91e-04  
 Nonlocal correlation = 6.292878647504e-01
    2    -967.5006728661      1.96e-04  
 Nonlocal correlation = 6.292519661926e-01
    3    -967.4998122875      3.43e-04  
 Nonlocal correlation = 6.292646116721e-01
    4    -967.5009999722      8.18e-05  
 Nonlocal correlation = 6.292692636053e-01
    5    -967.5010724552      1.52e-05  
 Nonlocal correlation = 6.292694737448e-01
    6    -967.5010746013      4.88e-06  
 Nonlocal correlation = 6.292688919184e-01
    7    -967.5010748136      2.17e-06  
 Nonlocal correlation = 6.292688705988e-01
    8    -967.5010748593      4.34e-07  
 Nonlocal correlation = 6.292688809350e-01
    9    -967.5010748605      2.59e-07  
 Nonlocal correlation = 6.292688857547e-01
   10    -967.5010748612      9.72e-08  
 Nonlocal correlation = 6.292688875191e-01
   11    -967.5010748613      2.01e-08  
 Nonlocal correlation = 6.292688863267e-01
   12    -967.5010748613      1.53e-08  
   13    -967.5010748613      3.87e-09  Convergence criterion met
 ---------------------------------------
 SCF time:   CPU 16484.46s  wall 1378.00s 
 SCF   energy in the final basis set =     -967.5010748613
 Total energy in the final basis set =     -967.5010748613
 
 --------------------------------------------------------------
 
                    Orbital Energies (a.u.)
 --------------------------------------------------------------
 
 Alpha MOs
 -- Occupied --
-19.202 -19.200 -10.255 -10.254 -10.216 -10.213 -10.206 -10.205
-10.205 -10.204 -10.204 -10.203 -10.202 -10.196 -10.193 -10.191
-10.190 -10.188 -10.187 -10.182 -10.178 -10.162 -10.162  -1.081
 -0.877  -0.835  -0.825  -0.806  -0.772  -0.769  -0.752  -0.732
 -0.703  -0.676  -0.672  -0.662  -0.651  -0.648  -0.614  -0.583
 -0.559  -0.544  -0.532  -0.520  -0.513  -0.496  -0.477  -0.466
 -0.464  -0.454  -0.443  -0.433  -0.425  -0.420  -0.410  -0.405
 -0.403  -0.401  -0.395  -0.390  -0.387  -0.383  -0.376  -0.372
 -0.362  -0.357  -0.355  -0.351  -0.343  -0.339  -0.334  -0.328
 -0.327  -0.324  -0.322  -0.319  -0.315  -0.308  -0.301  -0.292
 -0.289  -0.271  -0.248  -0.220  -0.208  -0.190
 -- Virtual --
 -0.100  -0.067  -0.024  -0.016   0.028   0.033   0.034   0.043
  0.049   0.054   0.061   0.063   0.067   0.070   0.076   0.079
  0.083   0.095   0.108   0.111   0.113   0.121   0.123   0.126
  0.128   0.129   0.135   0.143   0.144   0.153   0.158   0.159
  0.168   0.175   0.177   0.183   0.187   0.190   0.198   0.206
  0.208   0.212   0.217   0.224   0.232   0.244   0.251   0.257
  0.274   0.288   0.290   0.305   0.323   0.333   0.341   0.350
  0.364   0.366   0.380   0.400   0.408   0.420   0.432   0.439
  0.441   0.445   0.454   0.457   0.459   0.471   0.473   0.479
  0.486   0.489   0.500   0.507   0.509   0.514   0.520   0.531
  0.535   0.552   0.565   0.570   0.578   0.588   0.597   0.603
  0.609   0.609   0.616   0.622   0.623   0.630   0.640   0.644
  0.646   0.647   0.652   0.657   0.657   0.663   0.670   0.675
  0.676   0.681   0.684   0.689   0.692   0.696   0.697   0.699
  0.704   0.705   0.708   0.709   0.714   0.715   0.720   0.721
  0.722   0.724   0.729   0.736   0.738   0.745   0.751   0.752
  0.760   0.765   0.772   0.772   0.789   0.794   0.805   0.818
  0.821   0.827   0.830   0.838   0.859   0.864   0.876   0.891
  0.894   0.899   0.911   0.920   0.956   0.988   0.993   1.010
  1.027   1.058   1.059   1.085   1.107   1.115   1.120   1.134
  1.139   1.162   1.174   1.200   1.208   1.216   1.232   1.253
  1.274   1.278   1.308   1.324   1.339   1.362   1.378   1.402
  1.407   1.440   1.525   1.638   1.916
 --------------------------------------------------------------
 
          Ground-State Mulliken Net Atomic Charges

     Atom                 Charge (a.u.)
  ----------------------------------------
      1 O                    -0.311145
      2 C                     0.104599
      3 H                     0.112235
      4 C                     0.059901
      5 C                    -0.142095
      6 C                    -0.169740
      7 H                     0.104241
      8 H                     0.106717
      9 C                    -0.270983
     10 H                     0.132774
     11 H                     0.118763
     12 H                     0.126441
     13 O                    -0.291818
     14 C                     0.068008
     15 H                     0.101239
     16 C                    -0.035620
     17 C                    -0.087644
     18 H                     0.072057
     19 C                    -0.068905
     20 H                     0.086201
     21 C                    -0.110708
     22 H                     0.072146
     23 C                    -0.049443
     24 C                    -0.126523
     25 H                     0.071666
     26 C                    -0.069678
     27 H                     0.087892
     28 C                    -0.208727
     29 H                     0.109824
     30 H                     0.106898
     31 C                    -0.262719
     32 H                     0.125737
     33 H                     0.149999
     34 H                     0.129129
     35 C                    -0.249402
     36 H                     0.122297
     37 H                     0.130293
     38 H                     0.128433
     39 C                    -0.144262
     40 H                     0.095357
     41 H                     0.103083
     42 C                    -0.115225
     43 H                     0.091017
     44 H                     0.086929
     45 C                    -0.360987
     46 C                    -0.224253
     47 H                     0.168614
     48 H                     0.100806
     49 H                     0.099103
     50 C                    -0.225905
     51 H                     0.149640
     52 H                     0.103732
     53 H                     0.100009
  ----------------------------------------
  Sum of atomic charges =    -0.000000

 -----------------------------------------------------------------
                    Cartesian Multipole Moments
 -----------------------------------------------------------------
    Charge (ESU x 10^10)
                -0.0000
    Dipole Moment (Debye)
         X       2.8663      Y       3.0856      Z      -1.9728
       Tot       4.6507
    Quadrupole Moments (Debye-Ang)
        XX    -139.1880     XY     -10.0956     YY    -151.6003
        XZ      -0.2206     YZ       6.8028     ZZ    -141.2527
    Octopole Moments (Debye-Ang^2)
       XXX      83.2267    XXY      32.6558    XYY      17.9934
       YYY      11.5825    XXZ     -21.1681    XYZ      16.3786
       YYZ     -10.8674    XZZ      -8.1466    YZZ      -0.4990
       ZZZ      -7.5702
    Hexadecapole Moments (Debye-Ang^3)
      XXXX  -13576.8001   XXXY      41.6133   XXYY   -2824.3947
      XYYY    -129.3853   YYYY   -2435.5476   XXXZ    -186.5524
      XXYZ     118.1715   XYYZ      47.0403   YYYZ      51.0139
      XXZZ   -2578.6963   XYZZ       0.9733   YYZZ    -578.4861
      XZZZ      -5.6408   YZZZ       9.6761   ZZZZ   -1108.4098
 -----------------------------------------------------------------
 Calculating analytic gradient of the SCF energy
 Gradient of SCF Energy
            1           2           3           4           5           6
    1   0.0041123  -0.0032647   0.0003715  -0.0007108  -0.0016913   0.0007297
    2   0.0031662  -0.0026436   0.0016330   0.0013336  -0.0021912   0.0009664
    3   0.0047727   0.0007705  -0.0011274   0.0000206   0.0019829  -0.0006802
            7           8           9          10          11          12
    1  -0.0000896  -0.0000153   0.0007330  -0.0001263  -0.0005263  -0.0005132
    2  -0.0004366  -0.0004435   0.0005855  -0.0003548   0.0001501  -0.0001072
    3   0.0000840   0.0002953  -0.0009693   0.0005489   0.0004185   0.0004507
           13          14          15          16          17          18
    1  -0.0029626  -0.0012855   0.0002232   0.0014688  -0.0010870   0.0000305
    2   0.0046389  -0.0045689   0.0015688   0.0014797  -0.0007760   0.0003003
    3  -0.0039024   0.0022214   0.0012178   0.0001128  -0.0004764   0.0000523
           19          20          21          22          23          24
    1   0.0009269   0.0002491  -0.0005346   0.0001649   0.0002732  -0.0007310
    2   0.0005721  -0.0003549  -0.0009240   0.0001686   0.0010128  -0.0010288
    3   0.0004977  -0.0004383  -0.0007187   0.0001694   0.0007625  -0.0007747
           25          26          27          28          29          30
    1   0.0000484  -0.0000718   0.0000623  -0.0010094  -0.0000279   0.0001024
    2   0.0001447   0.0001766  -0.0003376  -0.0004931  -0.0001378   0.0000972
    3   0.0001244   0.0000488  -0.0002335  -0.0002053  -0.0001346   0.0001103
           31          32          33          34          35          36
    1  -0.0008230   0.0002673  -0.0001225  -0.0002314  -0.0002179   0.0003036
    2  -0.0002946   0.0004113   0.0000672   0.0005054  -0.0007389   0.0006491
    3  -0.0004640   0.0006570   0.0005140   0.0004115  -0.0005278   0.0005478
           37          38          39          40          41          42
    1  -0.0001968  -0.0002915  -0.0007445   0.0006840  -0.0000436   0.0011844
    2   0.0001472   0.0003993  -0.0008364  -0.0000643  -0.0003690  -0.0002044
    3   0.0004920   0.0003124  -0.0004810   0.0003190  -0.0001668  -0.0000180
           43          44          45          46          47          48
    1  -0.0001392   0.0000085   0.0001384   0.0008829   0.0008115   0.0008430
    2  -0.0005512  -0.0000490  -0.0003715   0.0002108  -0.0022203  -0.0003735
    3  -0.0003762   0.0000589  -0.0010843  -0.0023545  -0.0021537  -0.0006204
           49          50          51          52          53
    1  -0.0001677   0.0012706   0.0011397   0.0002413   0.0003511
    2   0.0000102   0.0001254  -0.0004266   0.0003886   0.0003814
    3  -0.0004929   0.0003683  -0.0000627  -0.0001188   0.0002414
 Max gradient component =       4.773E-03
 RMS gradient           =       1.166E-03
 Gradient time:  CPU 2423.16 s  wall 304.41 s
 Geometry Optimization Parameters
   NAtoms,    NIC,     NZ,  NCons,   NDum,   NFix, NCnnct, MaxDiis
       53     393      53       0       0       0       0       0

 Cartesian Hessian Update
 Hessian Updated using BFGS Update


** GEOMETRY OPTIMIZATION IN DELOCALIZED INTERNAL COORDINATES **
   Searching for a Minimum

   Optimization Cycle:   2

                       Coordinates (Angstroms)
     ATOM                X               Y               Z
      1  O        -2.9579385196   -2.2304069082    0.1196672573
      2  C        -2.1850199521   -1.0790700610   -0.4325133877
      3  H        -1.9367630567   -1.3008020773   -1.4811893331
      4  C        -2.8551848485    0.2553864596   -0.3164894724
      5  C        -2.4707566616    1.2562101743   -1.1481157653
      6  C        -3.1047117577    2.6261222313   -1.1275816247
      7  H        -3.2432928593    2.9637440629   -2.1720366398
      8  H        -2.3862028516    3.3460189363   -0.6818570465
      9  C        -1.3676924411    1.1329693251   -2.1713998509
     10  H        -0.6833455030    0.2888724906   -2.0027375639
     11  H        -0.7551730855    2.0517993649   -2.1633189389
     12  H        -1.7833887512    1.0451912798   -3.1932251092
     13  O        -1.6840039610   -2.7036078238    0.8715073373
     14  C        -1.0072010089   -1.4139095154    0.5167176342
     15  H        -0.9685360642   -0.7492549451    1.3939911410
     16  C         0.3416916820   -1.6085172259   -0.0684205137
     17  C         1.3761096359   -0.8554395164    0.4068808397
     18  H         1.1653010019   -0.1839509183    1.2495210287
     19  C         2.7247618530   -0.8291920051   -0.0885184683
     20  H         2.9756259811   -1.4814209628   -0.9307800175
     21  C         3.6894508350   -0.0154690710    0.4374888412
     22  H         3.4129265965    0.6369429617    1.2753680960
     23  C         5.0596746083    0.0760024401   -0.0093762590
     24  C         5.8982798826    0.9665011973    0.6153681481
     25  H         5.4714397999    1.5655491241    1.4299743112
     26  C         7.2883802800    1.2138745878    0.3281268992
     27  H         7.7591157702    0.6326608458   -0.4716085978
     28  C         8.0412510518    2.1226705684    0.9932721623
     29  H         9.0941177763    2.2808672307    0.7526744861
     30  H         7.6219502558    2.7294992396    1.8030834007
     31  C         0.4476352804   -2.6013779806   -1.1884493850
     32  H         1.4782433740   -2.9555030508   -1.3296582611
     33  H        -0.1946625732   -3.4705707509   -0.9742891806
     34  H         0.1077117386   -2.1752804666   -2.1526668330
     35  C         5.4943684473   -0.8124281919   -1.1430817188
     36  H         6.5536945942   -0.6813238064   -1.3956923567
     37  H         5.3381750440   -1.8755497727   -0.8922648608
     38  H         4.9040653309   -0.6076821057   -2.0534851501
     39  C        -4.4227062736    2.6641627975   -0.3605627745
     40  H        -4.7293695693    3.7080279187   -0.1831813806
     41  H        -5.2228189429    2.1946251277   -0.9615278434
     42  C        -4.2503499729    1.9197616079    0.9595518580
     43  H        -5.1602145314    1.9933428434    1.5813753910
     44  H        -3.4286122557    2.3919971786    1.5339316816
     45  C        -3.9230616044    0.4252189875    0.7599794201
     46  C        -3.4358566589   -0.1304642231    2.1127582632
     47  H        -3.2476554463   -1.2130070453    2.0677688859
     48  H        -2.5136405362    0.3835490551    2.4383029676
     49  H        -4.2114098787    0.0551320808    2.8769440120
     50  C        -5.1980159840   -0.3350251184    0.3401595126
     51  H        -4.9835670055   -1.4063783395    0.2083772665
     52  H        -5.6026264348    0.0574623786   -0.6081338997
     53  H        -5.9719777081   -0.2286251207    1.1219915111
   Point Group: c1    Number of degrees of freedom:   153


   Energy is   -967.501074861

 Hessian Updated using BFGS Update

137 Hessian modes will be used to form the next step
  Hessian Eigenvalues:
     0.002000    0.002000    0.003270    0.003689    0.005658    0.005759
     0.006461    0.006492    0.006873    0.008676    0.009159    0.009813
     0.012646    0.014180    0.014262    0.015265    0.015937    0.016384
     0.020582    0.020721    0.021251    0.021369    0.021963    0.025082
     0.026001    0.026160    0.027990    0.027992    0.028785    0.030711
     0.036238    0.037691    0.041518    0.046621    0.048309    0.049679
     0.052117    0.052347    0.053019    0.054155    0.055176    0.056308
     0.058387    0.060773    0.066359    0.068404    0.069326    0.069813
     0.072098    0.072765    0.073041    0.077432    0.078183    0.084116
     0.084236    0.095483    0.096473    0.098165    0.120556    0.121223
     0.130267    0.133396    0.158204    0.159993    0.159993    0.159999
     0.159999    0.160547    0.161724    0.188250    0.207098    0.213428
     0.220000    0.220001    0.220002    0.220099    0.221556    0.230285
     0.249955    0.249978    0.249996    0.249998    0.250204    0.255608
     0.262295    0.264947    0.266850    0.273386    0.276703    0.280478
     0.287077    0.293957    0.297425    0.302034    0.305265    0.315763
     0.317112    0.326651    0.329733    0.329960    0.330191    0.330341
     0.331426    0.332723    0.332777    0.332887    0.332989    0.333067
     0.333180    0.333298    0.333347    0.333366    0.334966    0.335044
     0.335989    0.336388    0.338061    0.338404    0.339071    0.339567
     0.339593    0.339685    0.340292    0.341025    0.342558    0.343594
     0.344356    0.346301    0.371281    0.382101    0.387006    0.419353
     0.493252    0.503387    0.506111    0.527601    0.538570

 Minimum Search - Taking Simple RFO Step
 Searching for Lamda that Minimizes Along All modes
 Value Taken    Lamda =  -0.00289002
 Step Taken.  Stepsize is  0.218130

                             Maximum     Tolerance    Cnvgd?
         Gradient           0.012341      0.000300      NO
         Displacement       0.072863      0.001200      NO
         Energy change     -0.002957      0.000001      NO


 New Cartesian Coordinates Obtained by Inverse Iteration

 Displacement from previous Coordinates is:  1.449676
 ----------------------------------------------------------------
             Standard Nuclear Orientation (Angstroms)
    I     Atom           X                Y                Z
 ----------------------------------------------------------------
    1      O      -2.9579476742    -2.2854726264     0.1096463775
    2      C      -2.1775716080    -1.1084913951    -0.3917543031
    3      H      -1.9326025010    -1.3063382222    -1.4446403434
    4      C      -2.8244608198     0.2362175322    -0.2519658265
    5      C      -2.4027501881     1.2217582589    -1.0855208935
    6      C      -3.0282883750     2.5911795841    -1.1209666911
    7      H      -3.1163759290     2.9063582186    -2.1780791850
    8      H      -2.3299799226     3.3213248701    -0.6588635638
    9      C      -1.2762710124     1.0621277180    -2.0726042815
   10      H      -0.6109478897     0.2090669193    -1.8719910681
   11      H      -0.6458126828     1.9691378971    -2.0639172844
   12      H      -1.6615518874     0.9639647507    -3.1057401986
   13      O      -1.6708680903    -2.7914417363     0.8425256198
   14      C      -0.9959390924    -1.4811218016     0.5293399295
   15      H      -0.9474601382    -0.8556750475     1.4314623357
   16      C       0.3420245361    -1.6484805072    -0.0804208434
   17      C       1.3803881531    -0.9109520824     0.4107143608
   18      H       1.1809950775    -0.2848866374     1.2899673503
   19      C       2.7158403587    -0.8439904250    -0.1120000012
   20      H       2.9535180063    -1.4487199363    -0.9921830629
   21      C       3.6827264653    -0.0450296231     0.4326326317
   22      H       3.4170536349     0.5591777985     1.3089550527
   23      C       5.0402506697     0.0896206653    -0.0391339129
   24      C       5.8800870373     0.9576766777     0.6156169308
   25      H       5.4616831708     1.5020537249     1.4716959727
   26      C       7.2584312886     1.2441882428     0.3141944521
   27      H       7.7198647064     0.7183414886    -0.5276315600
   28      C       8.0110622681     2.1262276552     1.0145234393
   29      H       9.0561922750     2.3164765664     0.7635947899
   30      H       7.5977474806     2.6772340676     1.8665801945
   31      C       0.4328138756    -2.5813940793    -1.2485646818
   32      H       1.4605231512    -2.9283354161    -1.4247136380
   33      H      -0.2058223636    -3.4618054963    -1.0712364411
   34      H       0.0796317858    -2.1098962138    -2.1871670069
   35      C       5.4584664887    -0.7279493006    -1.2271409339
   36      H       6.5097586023    -0.5727735211    -1.4978169291
   37      H       5.3207178986    -1.8056603654    -1.0341033031
   38      H       4.8465596736    -0.4832139563    -2.1133593375
   39      C      -4.3792389694     2.6460004307    -0.4247649818
   40      H      -4.6979890338     3.6929259304    -0.2924408652
   41      H      -5.1489990198     2.1579545957    -1.0504616287
   42      C      -4.2678052794     1.9410774244     0.9182185722
   43      H      -5.2025492763     2.0371332387     1.4994444516
   44      H      -3.4689484836     2.4296165122     1.5120189644
   45      C      -3.9338155098     0.4422385664     0.7866065889
   46      C      -3.5218250209    -0.0299519730     2.1946258143
   47      H      -3.3370164171    -1.1109480514     2.2421354604
   48      H      -2.6212185023     0.5097881878     2.5386759731
   49      H      -4.3385836867     0.2073348186     2.9001453721
   50      C      -5.1964446003    -0.3243381854     0.3461896070
   51      H      -4.9925270084    -1.4031931383     0.2753362893
   52      H      -5.5514008766     0.0264363064    -0.6379316384
   53      H      -6.0051106233    -0.1726734159     1.0848879932
 ----------------------------------------------------------------
 Molecular Point Group                 C1    NOp =  1
 Largest Abelian Subgroup              C1    NOp =  1
 Nuclear Repulsion Energy =  1892.7264236141 hartrees
 There are       86 alpha and       86 beta electrons
 Applying Cartesian multipole field
    Component          Value
    ---------          -----
     (2,0,0)        1.00000E-12
     (0,2,0)        2.00000E-11
     (0,0,2)       -3.00000E-11
 Nucleus-field energy     =     0.0000000218 hartrees
 Requested basis set is VDZ
 There are 175 shells and 267 basis functions
 A cutoff of  1.0D-11 yielded  10101 shell pairs
 There are     24053 function pairs
 Smallest overlap matrix eigenvalue = 7.70E-04
 Guess MOs from SCF MO coefficient file

 -----------------------------------------------------------------------
  General SCF calculation program by
  Eric Jon Sundstrom, Paul Horn, Yuezhi Mao, Dmitri Zuev, Alec White,
  David Stuck, Shaama M.S., Shane Yost, Joonho Lee, David Small,
  Daniel Levine, Susi Lehtola, Hugh Burton, Evgeny Epifanovsky
 -----------------------------------------------------------------------
 Exchange:  B97M-V      Correlation:  B97M-V
 Using SG-2 standard quadrature grid
 Nonlocal Correlation:  rVV10 with C = 0.0100 and b = 6.00 and scale = 1.00000
 Grid used for NLC:  SG-1 standard quadrature
 using 12 threads for integral computing
 -------------------------------------------------------
 OpenMP Integral computing Module                
 Release: version 1.0, May 2013, Q-Chem Inc. Pittsburgh 
 -------------------------------------------------------
 -------------------------------------------------------
 OpenMP BLAS3 based DFT computing Module                
 Release: version 1.0, May 2013, Q-Chem Inc. Pittsburgh 
 -------------------------------------------------------
 -------------------------------------------------------
 OpenMP BLAS3 based DFT computing Module                
 Release: version 1.0, May 2013, Q-Chem Inc. Pittsburgh 
 -------------------------------------------------------
 -------------------------------------------------------
 OpenMP BLAS3 based DFT computing Module                
 Release: version 1.0, May 2013, Q-Chem Inc. Pittsburgh 
 -------------------------------------------------------
 Nonlocal correlation = 0.629621420493
 A restricted SCF calculation will be
 performed using DIIS
 SCF converges when DIIS error is below 1.0e-08
 ---------------------------------------
  Cycle       Energy         DIIS error
 ---------------------------------------
 Nonlocal correlation = 6.295810753126e-01
    1    -967.4849252012      8.95e-04  
 Nonlocal correlation = 6.296207138485e-01
    2    -967.5009311613      1.07e-04  
 Nonlocal correlation = 6.296019026943e-01
    3    -967.5006440578      2.02e-04  
 Nonlocal correlation = 6.295949860454e-01
    4    -967.5010396974      2.88e-05  
 Nonlocal correlation = 6.295965814381e-01
    5    -967.5010468069      1.25e-05  
 Nonlocal correlation = 6.295972644293e-01
    6    -967.5010480645      5.54e-06  
 Nonlocal correlation = 6.295971101834e-01
    7    -967.5010483577      2.21e-06  
 Nonlocal correlation = 6.295971085396e-01
    8    -967.5010484046      7.06e-07  
 Nonlocal correlation = 6.295971127581e-01
    9    -967.5010484082      3.58e-07  
 Nonlocal correlation = 6.295970950213e-01
   10    -967.5010484094      1.02e-07  
 Nonlocal correlation = 6.295970998762e-01
   11    -967.5010484095      4.04e-08  
 Nonlocal correlation = 6.295971018900e-01
   12    -967.5010484095      1.18e-08  
   13    -967.5010484096      3.78e-09  Convergence criterion met
 ---------------------------------------
 SCF time:   CPU 16484.01s  wall 1378.00s 
 SCF   energy in the final basis set =     -967.5010484096
 Total energy in the final basis set =     -967.5010484096
 
 --------------------------------------------------------------
 
                    Orbital Energies (a.u.)
 --------------------------------------------------------------
 
 Alpha MOs
 -- Occupied --
-19.200 -19.200 -10.254 -10.253 -10.216 -10.213 -10.208 -10.205
-10.205 -10.204 -10.204 -10.203 -10.202 -10.197 -10.194 -10.191
-10.190 -10.188 -10.187 -10.182 -10.178 -10.166 -10.162  -1.073
 -0.874  -0.836  -0.826  -0.807  -0.774  -0.770  -0.753  -0.733
 -0.703  -0.677  -0.672  -0.663  -0.651  -0.649  -0.614  -0.583
 -0.559  -0.544  -0.531  -0.521  -0.514  -0.496  -0.477  -0.465
 -0.463  -0.456  -0.443  -0.433  -0.425  -0.421  -0.410  -0.405
 -0.404  -0.400  -0.395  -0.391  -0.387  -0.383  -0.375  -0.372
 -0.362  -0.357  -0.355  -0.351  -0.344  -0.338  -0.335  -0.327
 -0.326  -0.324  -0.323  -0.319  -0.315  -0.308  -0.301  -0.293
 -0.290  -0.272  -0.248  -0.220  -0.207  -0.190
 -- Virtual --
 -0.100  -0.069  -0.025  -0.017   0.028   0.033   0.034   0.044
  0.049   0.053   0.061   0.063   0.066   0.070   0.076   0.079
  0.083   0.092   0.108   0.110   0.113   0.121   0.122   0.126
  0.127   0.129   0.134   0.143   0.144   0.145   0.157   0.158
  0.167   0.173   0.176   0.182   0.186   0.188   0.196   0.205
  0.207   0.215   0.216   0.222   0.230   0.245   0.251   0.258
  0.272   0.288   0.291   0.306   0.321   0.333   0.340   0.350
  0.364   0.367   0.380   0.399   0.408   0.422   0.433   0.439
  0.442   0.445   0.455   0.456   0.458   0.470   0.472   0.479
  0.486   0.489   0.500   0.507   0.509   0.514   0.524   0.531
  0.535   0.548   0.564   0.574   0.580   0.587   0.597   0.604
  0.609   0.610   0.616   0.623   0.624   0.630   0.638   0.644
  0.647   0.651   0.653   0.655   0.658   0.663   0.669   0.673
  0.677   0.678   0.684   0.690   0.692   0.694   0.698   0.700
  0.703   0.705   0.707   0.712   0.712   0.715   0.719   0.720
  0.722   0.724   0.728   0.739   0.742   0.745   0.749   0.753
  0.760   0.765   0.772   0.774   0.787   0.793   0.807   0.818
  0.823   0.827   0.832   0.842   0.859   0.869   0.877   0.892
  0.893   0.902   0.911   0.918   0.955   0.979   0.988   0.992
  1.031   1.056   1.065   1.082   1.103   1.107   1.123   1.135
  1.138   1.163   1.174   1.195   1.200   1.215   1.226   1.249
  1.253   1.268   1.307   1.319   1.337   1.360   1.381   1.396
  1.399   1.438   1.529   1.631   1.916
 --------------------------------------------------------------
 
          Ground-State Mulliken Net Atomic Charges

     Atom                 Charge (a.u.)
  ----------------------------------------
      1 O                    -0.311767
      2 C                     0.110125
      3 H                     0.112677
      4 C                     0.063422
      5 C                    -0.149139
      6 C                    -0.167926
      7 H                     0.104306
      8 H                     0.106897
      9 C                    -0.276553
     10 H                     0.140921
     11 H                     0.119681
     12 H                     0.126184
     13 O                    -0.293141
     14 C                     0.073055
     15 H                     0.099156
     16 C                    -0.042488
     17 C                    -0.085481
     18 H                     0.071795
     19 C                    -0.068718
     20 H                     0.085829
     21 C                    -0.110777
     22 H                     0.072140
     23 C                    -0.048734
     24 C                    -0.126676
     25 H                     0.071689
     26 C                    -0.068733
     27 H                     0.087764
     28 C                    -0.208737
     29 H                     0.109969
     30 H                     0.107086
     31 C                    -0.263756
     32 H                     0.126105
     33 H                     0.150275
     34 H                     0.129120
     35 C                    -0.249592
     36 H                     0.122032
     37 H                     0.130340
     38 H                     0.128115
     39 C                    -0.140915
     40 H                     0.094998
     41 H                     0.102515
     42 C                    -0.122997
     43 H                     0.091915
     44 H                     0.087234
     45 C                    -0.352147
     46 C                    -0.215194
     47 H                     0.151051
     48 H                     0.100620
     49 H                     0.101208
     50 C                    -0.230268
     51 H                     0.151204
     52 H                     0.104806
     53 H                     0.099505
  ----------------------------------------
  Sum of atomic charges =    -0.000000

 -----------------------------------------------------------------
                    Cartesian Multipole Moments
 -----------------------------------------------------------------
    Charge (ESU x 10^10)
                -0.0000
    Dipole Moment (Debye)
         X       2.8799      Y       3.2743      Z      -1.9064
       Tot       4.7592
    Quadrupole Moments (Debye-Ang)
        XX    -138.9551     XY     -10.2106     YY    -152.8516
        XZ      -0.6939     YZ       6.7442     ZZ    -140.4837
    Octopole Moments (Debye-Ang^2)
       XXX      79.1923    XXY      38.0650    XYY      18.1521
       YYY      17.9566    XXZ     -20.8826    XYZ      15.6822
       YYZ     -11.7085    XZZ      -6.3313    YZZ       0.3607
       ZZZ      -6.7324
    Hexadecapole Moments (Debye-Ang^3)
      XXXX  -13484.8691   XXXY      37.6590   XXYY   -2820.7524
      XYYY    -161.9435   YYYY   -2463.2671   XXXZ    -162.9313
      XXYZ     112.6279   XYYZ      55.2582   YYYZ      41.4036
      XXZZ   -2546.3772   XYZZ      -4.3379   YYZZ    -581.6641
      XZZZ      28.7463   YZZZ      -0.8035   ZZZZ   -1117.4691
 -----------------------------------------------------------------
 Calculating analytic gradient of the SCF energy
 Gradient of SCF Energy
            1           2           3           4           5           6
    1   0.0007733  -0.0014145   0.0009863   0.0027179  -0.0003655  -0.0011812
    2  -0.0020597   0.0014069   0.0011031   0.0011223  -0.0013280  -0.0013756
    3  -0.0021980  -0.0004864  -0.0005154  -0.0003575   0.0010731   0.0008193
            7           8           9          10          11          12
    1  -0.0004176   0.0003314  -0.0016623   0.0000997  -0.0002785  -0.0002298
    2  -0.0003216  -0.0003497   0.0007656  -0.0016530   0.0000870  -0.0001684
    3   0.0000713   0.0001997   0.0008975   0.0005209   0.0002571   0.0002755
           13          14          15          16          17          18
    1  -0.0008803   0.0026759   0.0011919  -0.0004184  -0.0006100   0.0000082
    2   0.0006234  -0.0006094   0.0001552   0.0004248  -0.0006927   0.0000075
    3  -0.0010229   0.0000957  -0.0014291  -0.0001397  -0.0008600   0.0001184
           19          20          21          22          23          24
    1   0.0002371   0.0001605  -0.0000406   0.0001751   0.0003261   0.0001704
    2   0.0005594  -0.0001153  -0.0008462   0.0000715   0.0001322  -0.0006723
    3   0.0005474  -0.0002979  -0.0008327   0.0000296  -0.0002178  -0.0010006
           25          26          27          28          29          30
    1  -0.0000496  -0.0006288  -0.0000829  -0.0007856   0.0000107  -0.0001495
    2  -0.0000958   0.0002140  -0.0000830  -0.0006154  -0.0001051   0.0000133
    3   0.0001227   0.0004816  -0.0000493  -0.0006738  -0.0000448   0.0002491
           31          32          33          34          35          36
    1  -0.0008488   0.0001266  -0.0001086  -0.0002691  -0.0007157  -0.0000653
    2   0.0013047   0.0002687  -0.0000741   0.0004903   0.0005690   0.0002469
    3   0.0011344   0.0003062   0.0003157   0.0001575   0.0010590   0.0003711
           37          38          39          40          41          42
    1  -0.0000819  -0.0001774   0.0014415   0.0005976  -0.0001823   0.0005863
    2   0.0000447   0.0002472  -0.0018932  -0.0001101  -0.0002148  -0.0024078
    3   0.0002660   0.0002058  -0.0002505   0.0002077   0.0000377  -0.0010458
           43          44          45          46          47          48
    1  -0.0004452   0.0004682  -0.0004610  -0.0015546  -0.0007364  -0.0003175
    2  -0.0001494  -0.0003540  -0.0001354   0.0012988   0.0017619   0.0008174
    3  -0.0001728   0.0001072   0.0001522  -0.0000547   0.0008896   0.0000968
           49          50          51          52          53
    1  -0.0002916   0.0012293   0.0007094   0.0003223   0.0001019
    2   0.0005019   0.0013101   0.0000853   0.0005572   0.0002320
    3  -0.0001218   0.0004016   0.0001973  -0.0003931   0.0005020
 Max gradient component =       2.718E-03
 RMS gradient           =       7.813E-04
 Gradient time:  CPU 2424.16 s  wall 305.01 s
 Geometry Optimization Parameters
   NAtoms,    NIC,     NZ,  NCons,   NDum,   NFix, NCnnct, MaxDiis
       53     393      53       0       0       0       0       0

 Cartesian Hessian Update
 Hessian Updated using BFGS Update


** GEOMETRY OPTIMIZATION IN DELOCALIZED INTERNAL COORDINATES **
   Searching for a Minimum

   Optimization Cycle:   3

                       Coordinates (Angstroms)
     ATOM                X               Y               Z
      1  O        -2.9579476742   -2.2854726264    0.1096463775
      2  C        -2.1775716080   -1.1084913951   -0.3917543031
      3  H        -1.9326025010   -1.3063382222   -1.4446403434
      4  C        -2.8244608198    0.2362175322   -0.2519658265
      5  C        -2.4027501881    1.2217582589   -1.0855208935
      6  C        -3.0282883750    2.5911795841   -1.1209666911
      7  H        -3.1163759290    2.9063582186   -2.1780791850
      8  H        -2.3299799226    3.3213248701   -0.6588635638
      9  C        -1.2762710124    1.0621277180   -2.0726042815
     10  H        -0.6109478897    0.2090669193   -1.8719910681
     11  H        -0.6458126828    1.9691378971   -2.0639172844
     12  H        -1.6615518874    0.9639647507   -3.1057401986
     13  O        -1.6708680903   -2.7914417363    0.8425256198
     14  C        -0.9959390924   -1.4811218016    0.5293399295
     15  H        -0.9474601382   -0.8556750475    1.4314623357
     16  C         0.3420245361   -1.6484805072   -0.0804208434
     17  C         1.3803881531   -0.9109520824    0.4107143608
     18  H         1.1809950775   -0.2848866374    1.2899673503
     19  C         2.7158403587   -0.8439904250   -0.1120000012
     20  H         2.9535180063   -1.4487199363   -0.9921830629
     21  C         3.6827264653   -0.0450296231    0.4326326317
     22  H         3.4170536349    0.5591777985    1.3089550527
     23  C         5.0402506697    0.0896206653   -0.0391339129
     24  C         5.8800870373    0.9576766777    0.6156169308
     25  H         5.4616831708    1.5020537249    1.4716959727
     26  C         7.2584312886    1.2441882428    0.3141944521
     27  H         7.7198647064    0.7183414886   -0.5276315600
     28  C         8.0110622681    2.1262276552    1.0145234393
     29  H         9.0561922750    2.3164765664    0.7635947899
     30  H         7.5977474806    2.6772340676    1.8665801945
     31  C         0.4328138756   -2.5813940793   -1.2485646818
     32  H         1.4605231512   -2.9283354161   -1.4247136380
     33  H        -0.2058223636   -3.4618054963   -1.0712364411
     34  H         0.0796317858   -2.1098962138   -2.1871670069
     35  C         5.4584664887   -0.7279493006   -1.2271409339
     36  H         6.5097586023   -0.5727735211   -1.4978169291
     37  H         5.3207178986   -1.8056603654   -1.0341033031
     38  H         4.8465596736   -0.4832139563   -2.1133593375
     39  C        -4.3792389694    2.6460004307   -0.4247649818
     40  H        -4.6979890338    3.6929259304   -0.2924408652
     41  H        -5.1489990198    2.1579545957   -1.0504616287
     42  C        -4.2678052794    1.9410774244    0.9182185722
     43  H        -5.2025492763    2.0371332387    1.4994444516
     44  H        -3.4689484836    2.4296165122    1.5120189644
     45  C        -3.9338155098    0.4422385664    0.7866065889
     46  C        -3.5218250209   -0.0299519730    2.1946258143
     47  H        -3.3370164171   -1.1109480514    2.2421354604
     48  H        -2.6212185023    0.5097881878    2.5386759731
     49  H        -4.3385836867    0.2073348186    2.9001453721
     50  C        -5.1964446003   -0.3243381854    0.3461896070
     51  H        -4.9925270084   -1.4031931383    0.2753362893
     52  H        -5.5514008766    0.0264363064   -0.6379316384
     53  H        -6.0051106233   -0.1726734159    1.0848879932
   Point Group: c1    Number of degrees of freedom:   153


   Energy is   -967.501048410

 Hessian Updated using BFGS Update

138 Hessian modes will be used to form the next step
  Hessian Eigenvalues:
     0.001999    0.002001    0.003274    0.003825    0.005541    0.005770
     0.006461    0.006539    0.006869    0.008685    0.009529    0.010733
     0.012742    0.014261    0.014548    0.015271    0.015938    0.016381
     0.020582    0.020721    0.021255    0.021370    0.021962    0.025088
     0.026007    0.026226    0.027989    0.027995    0.028784    0.030775
     0.035886    0.037817    0.041683    0.046622    0.048319    0.050103
     0.052269    0.052347    0.053123    0.055168    0.055911    0.057520
     0.058228    0.066192    0.067942    0.069323    0.069787    0.069987
     0.072094    0.072769    0.073059    0.077667    0.078650    0.084162
     0.084216    0.095330    0.096474    0.098798    0.120051    0.121151
     0.129847    0.139493    0.156918    0.159993    0.159993    0.159999
     0.159999    0.160059    0.160545    0.161293    0.188882    0.207471
     0.219742    0.220000    0.220001    0.220002    0.220032    0.229685
     0.235694    0.249946    0.249960    0.249987    0.249997    0.250029
     0.260118    0.264448    0.265367    0.266927    0.271447    0.276742
     0.282388    0.292479    0.295360    0.297475    0.302473    0.305657
     0.315395    0.318747    0.326625    0.329581    0.329839    0.330132
     0.330341    0.331301    0.332721    0.332816    0.332890    0.333032
     0.333069    0.333212    0.333301    0.333350    0.333372    0.333983
     0.335023    0.335667    0.336403    0.338090    0.338404    0.338903
     0.339075    0.339582    0.339598    0.340292    0.341012    0.342567
     0.343609    0.344413    0.346301    0.377050    0.383665    0.388104
     0.466672    0.491253    0.504249    0.506900    0.514921    0.534008

 Minimum Search - Taking Simple RFO Step
 Searching for Lamda that Minimizes Along All modes
 Value Taken    Lamda =  -0.00202081
 Step Taken.  Stepsize is  0.219013

                             Maximum     Tolerance    Cnvgd?
         Gradient           0.011583      0.000300      NO
         Displacement       0.066080      0.001200      NO
         Energy change      0.000026      0.000001      NO


 New Cartesian Coordinates Obtained by Inverse Iteration

 Displacement from previous Coordinates is:  1.258218
 ----------------------------------------------------------------
             Standard Nuclear Orientation (Angstroms)
    I     Atom           X                Y                Z
 ----------------------------------------------------------------
    1      O      -2.9640711878    -2.2838131544     0.1525386599
    2      C      -2.1902692713    -1.1202763324    -0.3892655125
    3      H      -1.9585979197    -1.3514464694    -1.4376898300
    4      C      -2.8480832207     0.2287217618    -0.2710945907
    5      C      -2.3961550556     1.2345873141    -1.0719632354
    6      C      -2.9941749881     2.6220672911    -1.0671757027
    7      H      -3.0678156542     2.9747142462    -2.1137121589
    8      H      -2.2815144874     3.3217783872    -0.5807618725
    9      C      -1.2436125325     1.0980337985    -2.0388742734
   10      H      -0.5857005628     0.2380551745    -1.8527925083
   11      H      -0.6070403347     1.9993740889    -1.9863107972
   12      H      -1.6017990606     1.0380695226    -3.0848044572
   13      O      -1.6716333754    -2.7711028969     0.8902725115
   14      C      -1.0000899230    -1.4701866561     0.5345194231
   15      H      -0.9540239101    -0.8234258438     1.4219566512
   16      C       0.3455559911    -1.6600863698    -0.0667787933
   17      C       1.3817036419    -0.8987276501     0.3993078399
   18      H       1.1735172388    -0.2335031469     1.2470108531
   19      C       2.7243448269    -0.8524397784    -0.1134241812
   20      H       2.9710943282    -1.4995308831    -0.9595710948
   21      C       3.6872779059    -0.0247316521     0.3998535703
   22      H       3.4092516265     0.6220432799     1.2411774918
   23      C       5.0542667374     0.0900207639    -0.0597269264
   24      C       5.8807800104     0.9966792959     0.5642160499
   25      H       5.4435134241     1.5833307916     1.3819400694
   26      C       7.2655299512     1.2771423437     0.2758276243
   27      H       7.7474474013     0.7115411967    -0.5276322500
   28      C       8.0003878089     2.2007400229     0.9429517516
   29      H       9.0488954389     2.3853660369     0.7020815866
   30      H       7.5672556509     2.7948335728     1.7547824399
   31      C       0.4516411632    -2.6501041037    -1.1918582077
[...]
      3  H        -1.9699731083   -1.3625612960   -1.4585114691
      4  C        -2.8395220795    0.2315264418   -0.2924605758
      5  C        -2.4221519261    1.2237830442   -1.1256446228
      6  C        -3.0214529910    2.6105035452   -1.1132598726
      7  H        -3.1278793496    2.9559685516   -2.1591094878
      8  H        -2.2956316607    3.3139648852   -0.6523309197
      9  C        -1.3124324003    1.0774863353   -2.1368410679
     10  H        -0.7436387195    0.1404388287   -2.0669052992
     11  H        -0.5842845959    1.9004131430   -2.0132645086
     12  H        -1.7021976398    1.1676208623   -3.1684244789
     13  O        -1.6876528171   -2.7814065232    0.8547571889
     14  C        -1.0145491318   -1.4764949870    0.5140932741
     15  H        -0.9762701622   -0.8377324475    1.4081404520
     16  C         0.3329856234   -1.6571664549   -0.0812018048
     17  C         1.3646898480   -0.8995786136    0.3989317979
     18  H         1.1520417242   -0.2462971847    1.2548560570
     19  C         2.7086292133   -0.8468080209   -0.1081316404
     20  H         2.9595048135   -1.4842902983   -0.9608798354
     21  C         3.6680964027   -0.0249434301    0.4194015186
     22  H         3.3863314249    0.6120386381    1.2670760185
     23  C         5.0361295227    0.0936184191   -0.0329479636
     24  C         5.8622198768    0.9902656769    0.6044805856
     25  H         5.4243781348    1.5692347323    1.4274763652
     26  C         7.2487719735    1.2666449884    0.3233820513
     27  H         7.7301337664    0.7068070526   -0.4847628269
     28  C         7.9862861158    2.1781374543    1.0035662022
     29  H         9.0366934774    2.3588160560    0.7683096135
     30  H         7.5541218536    2.7652455998    1.8210537784
     31  C         0.4456056484   -2.6285299569   -1.2207828633
     32  H         1.4687878740   -3.0118339852   -1.3417337642
     33  H        -0.2256312717   -3.4848711352   -1.0485659871
     34  H         0.1513064717   -2.1765721056   -2.1888155221
     35  C         5.4816550368   -0.7709992387   -1.1810757395
     36  H         6.5393236543   -0.6287533953   -1.4344683235
     37  H         5.3375597523   -1.8407750929   -0.9516597936
     38  H         4.8916529293   -0.5608900374   -2.0907721603
     39  C        -4.3546874794    2.6827480083   -0.3764619111
     40  H        -4.6496973541    3.7331322842   -0.2171526197
     41  H        -5.1500952553    2.2238159263   -0.9916637262
     42  C        -4.2244003554    1.9449824869    0.9507429385
     43  H        -5.1404498690    2.0471094047    1.5593966893
     44  H        -3.4021026101    2.4053244244    1.5341593073
     45  C        -3.9232345584    0.4383523260    0.7753685873
     46  C        -3.4805000704   -0.0929143798    2.1567600892
     47  H        -3.3150727748   -1.1785836129    2.1552541349
     48  H        -2.5584560758    0.4129643338    2.4946964764
     49  H        -4.2703176008    0.1311191330    2.8960826880
     50  C        -5.2119990432   -0.2996053675    0.3453323049
     51  H        -5.0318438668   -1.3808864707    0.2489272414
     52  H        -5.5840514901    0.0737401075   -0.6235584698
     53  H        -6.0032545732   -0.1502110784    1.1025124896
   Point Group: c1    Number of degrees of freedom:   153


   Energy is   -967.502062286

 Hessian Updated using BFGS Update

149 Hessian modes will be used to form the next step
  Hessian Eigenvalues:
     0.000503    0.002045    0.003363    0.004043    0.005313    0.006269
     0.006482    0.006687    0.009104    0.009748    0.013526    0.014125
     0.014603    0.015648    0.015995    0.017206    0.017284    0.020623
     0.020878    0.021318    0.021955    0.023634    0.025124    0.025674
     0.026117    0.027824    0.027994    0.029171    0.031949    0.032216
     0.037325    0.041123    0.042490    0.048347    0.049743    0.050935
     0.052427    0.053046    0.053492    0.055432    0.056493    0.057905
     0.058546    0.066157    0.068681    0.069342    0.069796    0.072072
     0.072378    0.072886    0.073608    0.077757    0.079752    0.084399
     0.086879    0.095907    0.096546    0.100703    0.121480    0.123712
     0.140344    0.154628    0.157391    0.158694    0.159829    0.159891
     0.159948    0.159974    0.159993    0.159995    0.159998    0.159999
     0.160000    0.160025    0.160217    0.160352    0.160621    0.161123
     0.162359    0.163333    0.166725    0.192023    0.212603    0.219900
     0.219969    0.219999    0.220904    0.225115    0.230674    0.236543
     0.249627    0.250118    0.251369    0.255182    0.255728    0.261722
     0.268631    0.270878    0.271622    0.277757    0.282463    0.287045
     0.294675    0.297847    0.303057    0.305566    0.306505    0.314547
     0.320330    0.326663    0.329659    0.329986    0.330263    0.330435
     0.331775    0.332449    0.332835    0.332972    0.333108    0.333229
     0.333324    0.333390    0.333550    0.333701    0.335207    0.335368
     0.336465    0.337724    0.338302    0.338636    0.339098    0.339594
     0.339621    0.340637    0.341842    0.343004    0.343631    0.344274
     0.344670    0.346302    0.377880    0.384486    0.388700    0.476829
     0.493511    0.504950    0.508053    0.534017    0.570826

 Minimum Search - Taking Simple RFO Step
 Searching for Lamda that Minimizes Along All modes
 Value Taken    Lamda =   0.00000000
 Step Taken.  Stepsize is  0.006225

                             Maximum     Tolerance    Cnvgd?
         Gradient           0.000058      0.000300     YES
         Displacement       0.002697      0.001200      NO
         Energy change     -0.000000      0.000001     YES

 Final energy is   -967.502062286455     


 ******************************
 **  OPTIMIZATION CONVERGED  **
 ******************************

                       Coordinates (Angstroms)
     ATOM                X               Y               Z
      1  O        -2.9868838311   -2.2717489023    0.1402545379
      2  C        -2.1983763546   -1.1214431813   -0.4110050151
      3  H        -1.9699731083   -1.3625612960   -1.4585114691
      4  C        -2.8395220795    0.2315264418   -0.2924605758
      5  C        -2.4221519261    1.2237830442   -1.1256446228
      6  C        -3.0214529910    2.6105035452   -1.1132598726
      7  H        -3.1278793496    2.9559685516   -2.1591094878
      8  H        -2.2956316607    3.3139648852   -0.6523309197
      9  C        -1.3124324003    1.0774863353   -2.1368410679
     10  H        -0.7436387195    0.1404388287   -2.0669052992
     11  H        -0.5842845959    1.9004131430   -2.0132645086
     12  H        -1.7021976398    1.1676208623   -3.1684244789
     13  O        -1.6876528171   -2.7814065232    0.8547571889
     14  C        -1.0145491318   -1.4764949870    0.5140932741
     15  H        -0.9762701622   -0.8377324475    1.4081404520
     16  C         0.3329856234   -1.6571664549   -0.0812018048
     17  C         1.3646898480   -0.8995786136    0.3989317979
     18  H         1.1520417242   -0.2462971847    1.2548560570
     19  C         2.7086292133   -0.8468080209   -0.1081316404
     20  H         2.9595048135   -1.4842902983   -0.9608798354
     21  C         3.6680964027   -0.0249434301    0.4194015186
     22  H         3.3863314249    0.6120386381    1.2670760185
     23  C         5.0361295227    0.0936184191   -0.0329479636
     24  C         5.8622198768    0.9902656769    0.6044805856
     25  H         5.4243781348    1.5692347323    1.4274763652
     26  C         7.2487719735    1.2666449884    0.3233820513
     27  H         7.7301337664    0.7068070526   -0.4847628269
     28  C         7.9862861158    2.1781374543    1.0035662022
     29  H         9.0366934774    2.3588160560    0.7683096135
     30  H         7.5541218536    2.7652455998    1.8210537784
     31  C         0.4456056484   -2.6285299569   -1.2207828633
     32  H         1.4687878740   -3.0118339852   -1.3417337642
     33  H        -0.2256312717   -3.4848711352   -1.0485659871
     34  H         0.1513064717   -2.1765721056   -2.1888155221
     35  C         5.4816550368   -0.7709992387   -1.1810757395
     36  H         6.5393236543   -0.6287533953   -1.4344683235
     37  H         5.3375597523   -1.8407750929   -0.9516597936
     38  H         4.8916529293   -0.5608900374   -2.0907721603
     39  C        -4.3546874794    2.6827480083   -0.3764619111
     40  H        -4.6496973541    3.7331322842   -0.2171526197
     41  H        -5.1500952553    2.2238159263   -0.9916637262
     42  C        -4.2244003554    1.9449824869    0.9507429385
     43  H        -5.1404498690    2.0471094047    1.5593966893
     44  H        -3.4021026101    2.4053244244    1.5341593073
     45  C        -3.9232345584    0.4383523260    0.7753685873
     46  C        -3.4805000704   -0.0929143798    2.1567600892
     47  H        -3.3150727748   -1.1785836129    2.1552541349
     48  H        -2.5584560758    0.4129643338    2.4946964764
     49  H        -4.2703176008    0.1311191330    2.8960826880
     50  C        -5.2119990432   -0.2996053675    0.3453323049
     51  H        -5.0318438668   -1.3808864707    0.2489272414
     52  H        -5.5840514901    0.0737401075   -0.6235584698
     53  H        -6.0032545732   -0.1502110784    1.1025124896

Z-matrix Print:
$molecule
0 1
O 
C  1 1.499611
H  2 1.098898 1 106.941150
C  2 1.501881 1 115.946672 3 124.654731 0
C  4 1.361237 2 118.519687 1 -158.768550 0
C  5 1.508442 4 124.414844 2 -2.468056 0
H  6 1.098397 5 114.898811 4 -8.532360 0
H  6 1.105748 5 109.715605 4 -128.677701 0
H  6 1.106438 5 110.974317 4 114.524070 0
C  5 1.510731 4 122.850735 2 178.516249 0
H  10 1.106560 5 108.480108 4 -139.364086 0
H  10 1.110914 5 108.993814 4 106.936449 0
C  10 1.524993 5 113.219800 4 -15.732810 0
H  13 1.102596 10 110.417221 5 168.586307 0
H  13 1.105335 10 109.910009 5 -74.254715 0
C  13 1.524056 10 108.848895 5 46.516474 0
H  16 1.104552 13 111.359053 10 174.987779 0
H  16 1.108360 13 108.708703 10 57.755101 0
C  4 1.535405 2 118.525609 1 22.022676 0
C  2 1.543799 1 90.372947 3 -112.318106 0
H  20 1.099456 2 112.356114 1 -100.123750 0
C  20 1.484206 2 118.938190 1 127.134771 0
C  22 1.367070 20 118.480711 2 124.074947 0
H  23 1.097544 22 117.227803 20 4.348941 0
C  23 1.437383 22 127.018222 20 -174.696274 0
H  25 1.093847 23 117.908372 22 -0.973583 0
C  25 1.369062 23 122.776925 22 178.127806 0
H  27 1.097128 25 117.792053 23 0.235508 0
C  27 1.445749 25 126.286053 23 -179.694601 0
C  29 1.375760 27 118.467735 25 179.011299 0
H  30 1.097375 29 116.856727 27 -0.099959 0
C  30 1.441502 29 127.747295 27 179.838782 0
H  32 1.094635 30 117.962415 29 -0.404980 0
C  32 1.355506 30 123.670901 29 179.640362 0
H  34 1.091488 32 121.787192 30 179.644131 0
H  34 1.095330 32 121.350408 30 -0.032369 0
C  22 1.501624 20 116.822013 2 -53.293807 0
H  37 1.099297 22 112.262936 20 -157.079221 0
H  37 1.101607 22 109.786328 20 -36.612649 0
H  37 1.108136 22 112.284217 20 82.239874 0
C  29 1.504744 27 118.149567 25 -0.878571 0
H  41 1.096861 29 112.783603 27 -178.529507 0
H  41 1.103547 29 111.083564 27 -57.848108 0
H  41 1.104444 29 111.160696 27 60.693651 0
O  20 1.507287 2 89.547438 1 10.896879 0
C  19 1.544830 4 111.918454 2 48.525172 0
H  46 1.098201 19 112.452643 4 -63.467082 0
H  46 1.104663 19 110.810446 4 58.948278 0
H  46 1.104808 19 108.891125 4 176.871385 0
C  19 1.546100 4 109.305399 2 -72.164598 0
H  50 1.100417 19 110.910146 4 61.042967 0
H  50 1.102977 19 111.342401 4 -59.392977 0
H  50 1.105317 19 109.978291 4 -179.483232 0
$end

 
 --------------------------------------------------------------
 
                    Orbital Energies (a.u.)
 --------------------------------------------------------------
 
 Alpha MOs
 -- Occupied --
-19.201 -19.200 -10.255 -10.253 -10.217 -10.213 -10.209 -10.206
-10.205 -10.205 -10.205 -10.203 -10.203 -10.199 -10.194 -10.191
-10.190 -10.188 -10.188 -10.183 -10.179 -10.164 -10.163  -1.072
 -0.875  -0.834  -0.825  -0.806  -0.772  -0.768  -0.752  -0.732
 -0.703  -0.677  -0.672  -0.662  -0.651  -0.648  -0.614  -0.583
 -0.559  -0.544  -0.532  -0.521  -0.514  -0.496  -0.477  -0.465
 -0.462  -0.454  -0.443  -0.433  -0.424  -0.420  -0.409  -0.405
 -0.403  -0.400  -0.394  -0.391  -0.387  -0.383  -0.375  -0.372
 -0.361  -0.357  -0.355  -0.352  -0.344  -0.338  -0.334  -0.328
 -0.326  -0.324  -0.322  -0.319  -0.315  -0.307  -0.301  -0.293
 -0.289  -0.272  -0.247  -0.221  -0.208  -0.190
 -- Virtual --
 -0.101  -0.070  -0.025  -0.018   0.028   0.033   0.034   0.043
  0.048   0.053   0.061   0.063   0.066   0.070   0.076   0.079
  0.082   0.094   0.109   0.111   0.113   0.120   0.124   0.126
  0.128   0.129   0.134   0.143   0.143   0.149   0.157   0.158
  0.167   0.173   0.175   0.182   0.185   0.188   0.196   0.205
  0.206   0.214   0.217   0.223   0.229   0.243   0.252   0.256
  0.271   0.287   0.290   0.303   0.321   0.331   0.338   0.349
  0.363   0.365   0.380   0.398   0.406   0.420   0.431   0.438
  0.441   0.443   0.453   0.455   0.457   0.467   0.471   0.479
  0.482   0.488   0.498   0.506   0.508   0.514   0.519   0.530
  0.534   0.549   0.565   0.570   0.576   0.589   0.595   0.602
  0.608   0.609   0.616   0.621   0.623   0.629   0.640   0.644
  0.647   0.647   0.652   0.653   0.657   0.662   0.669   0.672
  0.676   0.679   0.683   0.687   0.692   0.695   0.697   0.699
  0.702   0.705   0.705   0.710   0.714   0.714   0.719   0.720
  0.723   0.724   0.726   0.736   0.737   0.745   0.748   0.751
  0.758   0.764   0.771   0.772   0.789   0.793   0.804   0.816
  0.821   0.826   0.832   0.837   0.856   0.862   0.877   0.891
  0.895   0.900   0.911   0.921   0.952   0.989   0.998   1.001
  1.021   1.054   1.057   1.089   1.100   1.110   1.116   1.133
  1.139   1.160   1.169   1.200   1.203   1.214   1.223   1.246
  1.264   1.270   1.306   1.319   1.335   1.360   1.376   1.399
  1.407   1.433   1.526   1.630   1.913
 --------------------------------------------------------------
 
          Ground-State Mulliken Net Atomic Charges

     Atom                 Charge (a.u.)
  ----------------------------------------
      1 O                    -0.311672
      2 C                     0.111310
      3 H                     0.112381
      4 C                     0.059401
      5 C                    -0.139720
      6 C                    -0.170636
      7 H                     0.102995
      8 H                     0.106850
      9 C                    -0.269568
     10 H                     0.130616
     11 H                     0.121252
     12 H                     0.122563
     13 O                    -0.293707
     14 C                     0.068680
     15 H                     0.100781
     16 C                    -0.035615
     17 C                    -0.088183
     18 H                     0.071782
     19 C                    -0.066374
     20 H                     0.084875
     21 C                    -0.110732
     22 H                     0.072360
     23 C                    -0.047114
     24 C                    -0.126927
     25 H                     0.071885
     26 C                    -0.069000
     27 H                     0.087607
     28 C                    -0.208433
     29 H                     0.110276
     30 H                     0.107019
     31 C                    -0.269635
     32 H                     0.127076
     33 H                     0.149364
     34 H                     0.131689
     35 C                    -0.251320
     36 H                     0.122432
     37 H                     0.130156
     38 H                     0.128426
     39 C                    -0.142665
     40 H                     0.095743
     41 H                     0.102640
     42 C                    -0.120161
     43 H                     0.091693
     44 H                     0.087204
     45 C                    -0.352637
     46 C                    -0.222290
     47 H                     0.160442
     48 H                     0.101427
     49 H                     0.100217
     50 C                    -0.228624
     51 H                     0.148900
     52 H                     0.104782
     53 H                     0.100190
  ----------------------------------------
  Sum of atomic charges =    -0.000000

 -----------------------------------------------------------------
                    Cartesian Multipole Moments
 -----------------------------------------------------------------
    Charge (ESU x 10^10)
                -0.0000
    Dipole Moment (Debye)
         X       2.9414      Y       3.2116      Z      -1.9450
       Tot       4.7696
    Quadrupole Moments (Debye-Ang)
        XX    -138.8979     XY     -10.2915     YY    -152.1865
        XZ      -0.5592     YZ       7.0043     ZZ    -141.0224
    Octopole Moments (Debye-Ang^2)
       XXX      84.0516    XXY      36.3835    XYY      19.8175
       YYY      16.3756    XXZ     -20.8379    XYZ      15.7518
       YYZ     -11.5914    XZZ      -7.1463    YZZ      -0.0414
       ZZZ      -6.7709
    Hexadecapole Moments (Debye-Ang^3)
      XXXX  -13426.9999   XXXY      18.4654   XXYY   -2811.0019
      XYYY    -168.7063   YYYY   -2500.5867   XXXZ    -165.4016
      XXYZ     115.3861   XYYZ      57.2421   YYYZ      45.4718
      XXZZ   -2552.5031   XYZZ     -10.3914   YYZZ    -587.5116
      XZZZ      19.0520   YZZZ      -0.5548   ZZZZ   -1114.4902
 -----------------------------------------------------------------
Archival summary:
1\1\cub-0-27.local\OPT\ProcedureUnspecified\BasisUnspecified\22130\c295_lal\TueNov2713:57:312018TueNov2713:57:312018\0\\#,OPT,ProcedureUnspecified,BasisUnspecified,\\0,1\O\C,1,1.49961\H,2,1.0989,1,106.941\C,2,1.50188,1,115.947,3,124.655,0\C,4,1.36124,2,118.52,1,-158.769,0\C,5,1.50844,4,124.415,2,-2.46806,0\H,6,1.0984,5,114.899,4,-8.53236,0\H,6,1.10575,5,109.716,4,-128.678,0\H,6,1.10644,5,110.974,4,114.524,0\C,5,1.51073,4,122.851,2,178.516,0\H,10,1.10656,5,108.48,4,-139.364,0\H,10,1.11091,5,108.994,4,106.936,0\C,10,1.52499,5,113.22,4,-15.7328,0\H,13,1.1026,10,110.417,5,168.586,0\H,13,1.10533,10,109.91,5,-74.2547,0\C,13,1.52406,10,108.849,5,46.5165,0\H,16,1.10455,13,111.359,10,174.988,0\H,16,1.10836,13,108.709,10,57.7551,0\C,4,1.53541,2,118.526,1,22.0227,0\C,2,1.5438,1,90.3729,3,-112.318,0\H,20,1.09946,2,112.356,1,-100.124,0\C,20,1.48421,2,118.938,1,127.135,0\C,22,1.36707,20,118.481,2,124.075,0\H,23,1.09754,22,117.228,20,4.34894,0\C,23,1.43738,22,127.018,20,-174.696,0\H,25,1.09385,23,117.908,22,-0.973583,0\C,25,1.36906,23,122.777,22,178.128,0\H,27,1.09713,25,117.792,23,0.235508,0\C,27,1.44575,25,126.286,23,-179.695,0\C,29,1.37576,27,118.468,25,179.011,0\H,30,1.09738,29,116.857,27,-0.0999589,0\C,30,1.4415,29,127.747,27,179.839,0\H,32,1.09464,30,117.962,29,-0.40498,0\C,32,1.35551,30,123.671,29,179.64,0\H,34,1.09149,32,121.787,30,179.644,0\H,34,1.09533,32,121.35,30,-0.032369,0\C,22,1.50162,20,116.822,2,-53.2938,0\H,37,1.0993,22,112.263,20,-157.079,0\H,37,1.10161,22,109.786,20,-36.6126,0\H,37,1.10814,22,112.284,20,82.2399,0\C,29,1.50474,27,118.15,25,-0.878571,0\H,41,1.09686,29,112.784,27,-178.53,0\H,41,1.10355,29,111.084,27,-57.8481,0\H,41,1.10444,29,111.161,27,60.6937,0\O,20,1.50729,2,89.5474,1,10.8969,0\C,19,1.54483,4,111.918,2,48.5252,0\H,46,1.0982,19,112.453,4,-63.4671,0\H,46,1.10466,19,110.81,4,58.9483,0\H,46,1.10481,19,108.891,4,176.871,0\C,19,1.5461,4,109.305,2,-72.1646,0\H,50,1.10042,19,110.91,4,61.043,0\H,50,1.10298,19,111.342,4,-59.393,0\H,50,1.10532,19,109.978,4,-179.483,0\\\@

 Total job time:  22680.90s(wall), 252866.53s(cpu) 
 Tue Nov 27 13:57:31 2018

        *************************************************************
        *                                                           *
        *  Thank you very much for using Q-Chem.  Have a nice day.  *
        *                                                           *
        *************************************************************


