
Running Job 1 of 1 sys_1_opt_vdz_mgga.in
qchem sys_1_opt_vdz_mgga.in_11263.0 /scr/c295_lal/152687/qchem11263/ 1
/usr/software/qchem_511/exe/qcprog.exe_s sys_1_opt_vdz_mgga.in_11263.0 /scr/c295_lal/152687/qchem11263/
Check license passed

                  Welcome to Q-Chem
     A Quantum Leap Into The Future Of Chemistry


 Q-Chem 5.1, Q-Chem, Inc., Pleasanton, CA (2018)

 Yihan Shao,  Zhengting Gan,  E. Epifanovsky,  A. T. B. Gilbert,  M. Wormit,  
 J. Kussmann,  A. W. Lange,  A. Behn,  Jia Deng,  Xintian Feng,  D. Ghosh,  
 M. Goldey,  P. R. Horn,  L. D. Jacobson,  I. Kaliman,  T. Kus,  A. Landau,  
 Jie Liu,  E. I. Proynov,  R. M. Richard,  R. P. Steele,  E. J. Sundstrom,  
 H. L. Woodcock III,  P. M. Zimmerman,  D. Zuev,  B. Albrecht,  E. Alguire,  
 S. A. Baeppler,  D. Barton,  Z. Benda,  Y. A. Bernard,  E. J. Berquist,  
 K. B. Bravaya,  H. Burton,  D. Casanova,  Chun-Min Chang,  Yunqing Chen,  
 A. Chien,  K. D. Closser,  M. P. Coons,  S. Coriani,  S. Dasgupta,  
 A. L. Dempwolff,  M. Diedenhofen,  Hainam Do,  R. G. Edgar,  Po-Tung Fang,  
 S. Faraji,  S. Fatehi,  Qingguo Feng,  K. D. Fenk,  J. Fosso-Tande,  
 Qinghui Ge,  A. Ghysels,  G. Gidofalvi,  J. Gomes,  J. Gonthier,  A. Gunina,  
 D. Hait,  M. W. D. Hanson-Heine,  P. H. P. Harbach,  A. W. Hauser,  
 J. E. Herr,  E. G. Hohenstein,  Z. C. Holden,  Kerwin Hui,  B. C. Huynh,  
 T.-C. Jagau,  Hyunjun Ji,  B. Kaduk,  K. Khistyaev,  Jaehoon Kim,  
 P. Klunzinger,  K. Koh,  D. Kosenkov,  L. Koulias,  T. Kowalczyk,  
 C. M. Krauter,  A. Kunitsa,  Ka Un Lao,  A. Laurent,  K. V. Lawler,  
 Joonho Lee,  D. Lefrancois,  S. Lehtola,  D. S. Levine,  Yi-Pei Li,  
 You-Sheng Lin,  Fenglai Liu,  E. Livshits,  A. Luenser,  P. Manohar,  
 E. Mansoor,  S. F. Manzer,  Shan-Ping Mao,  Yuezhi Mao,  N. Mardirossian,  
 A. V. Marenich,  T. Markovich,  L. A. Martinez-Martinez,  S. A. Maurer,  
 N. J. Mayhall,  S. C. McKenzie,  J.-M. Mewes,  A. F. Morrison,  
 J. W. Mullinax,  K. Nanda,  T. S. Nguyen-Beck,  R. Olivares-Amaya,  
 J. A. Parkhill,  T. M. Perrine,  F. Plasser,  P. Pokhilko,  S. Prager,  
 A. Prociuk,  E. Ramos,  D. R. Rehn,  F. Rob,  M. Schneider,  N. Sergueev,  
 S. M. Sharada,  S. Sharma,  D. W. Small,  T. Stauch,  T. Stein,  
 Yu-Chuan Su,  A. J. W. Thom,  A. Tkatchenko,  T. Tsuchimochi,  N. M. Tubman,  
 L. Vogt,  M. L. Vidal,  O. Vydrov,  M. A. Watson,  J. Wenzel,  
 M. de Wergifosse,  T. A. Wesolowski,  A. White,  J. Witte,  A. Yamada,  
 Jun Yang,  K. Yao,  S. Yeganeh,  S. R. Yost,  Zhi-Qiang You,  A. Zech,  
 Igor Ying Zhang,  Xing Zhang,  Yan Zhao,  Ying Zhu,  B. R. Brooks,  
 G. K. L. Chan,  C. J. Cramer,  M. S. Gordon,  W. J. Hehre,  A. Klamt,  
 M. W. Schmidt,  C. D. Sherrill,  D. G. Truhlar,  A. Aspuru-Guzik,  R. Baer,  
 A. T. Bell,  N. A. Besley,  Jeng-Da Chai,  A. E. DePrince, III,  
 R. A. DiStasio Jr.,  A. Dreuw,  B. D. Dunietz,  T. R. Furlani,  
 Chao-Ping Hsu,  Yousung Jung,  Jing Kong,  D. S. Lambrecht,  WanZhen Liang,  
 C. Ochsenfeld,  V. A. Rassolov,  L. V. Slipchenko,  J. E. Subotnik,  
 T. Van Voorhis,  J. M. Herbert,  A. I. Krylov,  P. M. W. Gill,  M. Head-Gordon

 Contributors to earlier versions of Q-Chem not listed above: 
 R. D. Adamson,  B. Austin,  J. Baker,  G. J. O. Beran,  K. Brandhorst,  
 S. T. Brown,  E. F. C. Byrd,  A. K. Chakraborty,  C.-L. Cheng,  
 Siu Hung Chien,  D. M. Chipman,  D. L. Crittenden,  H. Dachsel,  
 R. J. Doerksen,  A. D. Dutoi,  L. Fusti-Molnar,  W. A. Goddard III,  
 A. Golubeva-Zadorozhnaya,  S. R. Gwaltney,  G. Hawkins,  A. Heyden,  
 S. Hirata,  G. Kedziora,  F. J. Keil,  C. Kelley,  Jihan Kim,  R. A. King,  
 R. Z. Khaliullin,  P. P. Korambath,  W. Kurlancheek,  A. M. Lee,  M. S. Lee,  
 S. V. Levchenko,  Ching Yeh Lin,  D. Liotard,  R. C. Lochan,  I. Lotan,  
 P. E. Maslen,  N. Nair,  D. P. O'Neill,  D. Neuhauser,  E. Neuscamman,  
 C. M. Oana,  R. Olson,  B. Peters,  R. Peverati,  P. A. Pieniazek,  
 Y. M. Rhee,  J. Ritchie,  M. A. Rohrdanz,  E. Rosta,  N. J. Russ,  
 H. F. Schaefer III,  N. E. Schultz,  N. Shenvi,  A. C. Simmonett,  A. Sodt,  
 D. Stuck,  K. S. Thanthiriwatte,  V. Vanovschi,  Tao Wang,  A. Warshel,  
 C. F. Williams,  Q. Wu,  X. Xu,  W. Zhang

 Please cite Q-Chem as follows:
 Y. Shao et al., Mol. Phys. 113, 184-215 (2015)
 DOI: 10.1080/00268976.2014.952696

 Q-Chem 5.1.1 for Intel X86 EM64T Linux

 Parts of Q-Chem use Armadillo 8.300.2 (Tropical Shenanigans).
 http://arma.sourceforge.net/

 Q-Chem begins on Wed Nov 21 10:52:14 2018  

Host: cub-0-29.local
0

     Scratch files written to /scr/c295_lal/152687/qchem11263//
 Aug318 |scratch|qcdevops|jenkins|workspace|build_RNUM -1
Processing $rem in /usr/software/qchem_511/config/preferences.
 MEM_TOTAL  2000 
Input Ideriv = 2
Curr. Ideriv = -1
Max.  Ideriv = 2
Input Ideriv = 1
Curr. Ideriv = 2
Max.  Ideriv = 1

Checking the input file for inconsistencies... 	...done.

--------------------------------------------------------------
User input:
--------------------------------------------------------------
$molecule
2 5
Fe
O  1 1.946473
O  2 1.265326 1 135.774603
N  1 1.954755 2 89.621093 3 69.419690 0
C  4 1.355294 1 127.110165 2 44.852211 0
H  5 1.088208 4 126.868611 1 3.277860 0
N  5 1.353174 4 108.984972 1 -177.202829 0
H  7 1.020497 5 125.278628 4 -179.460694 0
C  7 1.392800 5 109.448999 4 0.439678 0
H  9 1.087376 7 122.757242 5 179.171579 0
C  9 1.376015 7 106.010639 5 -0.419317 0
H  11 1.086538 9 128.624961 7 179.337233 0
N  1 1.957576 2 90.477459 3 -93.582765 0
C  13 1.355362 1 127.851857 2 -24.603189 0
H  14 1.087916 13 126.670853 1 -3.712528 0
N  14 1.353641 13 109.041512 1 176.856601 0
H  16 1.020964 14 125.272197 13 179.845815 0
C  16 1.392454 14 109.528460 13 -0.326691 0
H  18 1.087696 16 122.845737 14 -179.189627 0
C  18 1.375891 16 105.922162 14 0.368537 0
H  20 1.087446 18 128.223892 16 -178.414113 0
N  1 2.067499 2 149.584145 3 172.290580 0
H  22 1.033388 1 104.303738 2 74.665487 0
C  22 1.461368 1 112.071195 2 -160.459534 0
H  24 1.088514 22 121.706034 1 -70.237056 0
C  24 1.361349 22 107.109467 1 112.027581 0
H  26 1.088453 24 128.974388 22 -179.237112 0
N  26 1.424280 24 110.470962 22 2.079883 0
C  28 1.294329 26 107.793768 24 0.710184 0
H  29 1.091129 28 127.083764 26 176.150356 0
$end

$rem
BASIS = VDZ
METHOD  = B97M-rV
JOBTYPE = OPT
MAX_SCF_CYCLES = 500
SCF_ALGORITHM = DIIS_GDM
$end
--------------------------------------------------------------
 ----------------------------------------------------------------
             Standard Nuclear Orientation (Angstroms)
    I     Atom           X                Y                Z
 ----------------------------------------------------------------
    1      Fe      0.2654250214    -0.2666752385     0.1052952574
    2      O       0.5544163172    -2.0891568483     0.7248127735
    3      O       0.5848049054    -3.2349563588     0.1888371195
    4      N      -1.6105380736    -0.6949334938    -0.2388332697
    5      C      -2.4554737409    -1.3774839313     0.5717408754
    6      H      -2.2402350083    -1.7560126294     1.5690296821
    7      N      -3.6479078916    -1.5168639825    -0.0525618332
    8      H      -4.4663977089    -1.9849693130     0.3377789738
    9      C      -3.5857443572    -0.9204115038    -1.3096505237
   10      H      -4.4243227237    -0.9180415470    -2.0018696160
   11      C      -2.3149172445    -0.4050290153    -1.4227726717
   12      H      -1.8709608499     0.1274595401    -2.2593869696
   13      N       2.1956518829    -0.0126924966    -0.0992061501
   14      C       3.1933610853    -0.6680738080     0.5427111617
   15      H       3.0815981252    -1.4136205884     1.3270773148
   16      N       4.3840212724    -0.2399037621     0.0617301980
   17      H       5.2987056292    -0.5691872704     0.3736474754
   18      C       4.1697158396     0.7165334799    -0.9273244646
   19      H       4.9812916559     1.1964917662    -1.4696042137
   20      C       2.8047685551     0.8602080366    -1.0240331825
   21      H       2.2416471875     1.4979389093    -1.7013310949
   22      N      -0.0146491373     1.7373653507     0.5294790589
   23      H       0.9222134470     2.0726728712     0.8083125635
   24      C      -0.6167157064     2.4568910630    -0.5909650616
   25      H      -0.0650360637     2.6507249371    -1.5090830983
   26      C      -1.8702545880     2.8218845728    -0.2053601991
   27      H      -2.6296182849     3.3617961819    -0.7680254312
   28      N      -2.1145945152     2.4202230818     1.1390874812
   29      C      -1.0447270561     1.8396540793     1.5790997691
   30      H      -0.8676672279     1.4638082787     2.5880359644
 ----------------------------------------------------------------
 Molecular Point Group                 C1    NOp =  1
 Largest Abelian Subgroup              C1    NOp =  1
 Nuclear Repulsion Energy =  1724.3730398016 hartrees
 There are       76 alpha and       72 beta electrons
 Requested basis set is VDZ
 There are 118 shells and 198 basis functions

 Total QAlloc Memory Limit   2000 MB
 Mega-Array Size       188 MB
 MEM_STATIC part       192 MB
 A cutoff of  1.0D-12 yielded   5798 shell pairs
 There are     16926 function pairs (     17313 Cartesian)
 
 -------------------------------------------------------
 OpenMP Integral Computing Module                       
 Release: version 1.0, May 2013, Q-Chem Inc. Pittsburgh 
 -------------------------------------------------------
 Integral Job Info:
 Integral job number is                      11
 Integral operator is                         1
 short-range coefficients                     0
 long-range coefficients              100000000
 Omega coefficients                           0
 if combine SR and LR in K                    0
 Integral screening is                        0
 Integral computing path is                   2
 max size of driver memory is            800000
 size of driver memory is                593474
 size of scratch memory is             29634545
 max col of scratch BK array               1296
 max len of scratch array in speh3          155
 max len of scratch index in speh4           18
 max int batch size is                      520
 min int batch size is                       52
 fixed nKL is                                45
 max L of basis functions is                  2
 order of int derivative is                   0
 number of shells is                        118
 number of basis is                         200
 number of cartesian basis is               200
 number of contracted shell pairs          5798
 number of primitive shell pairs          17023
 maxK2 (contraction) of shell pair           36
 max number of K2 of shell pair               1
 max number of CS2 of shell pair           1231
 max number of PS2 of shell pair           3360
 mem total for path MDJ                  567434
 -------------------------------------------------------
 Smallest overlap matrix eigenvalue = 1.72E-03

 Scale SEOQF with 1.000000e-02/1.000000e-01/1.000000e-01

 Standard Electronic Orientation quadrupole field applied
 Nucleus-field energy     =     0.0000000189 hartrees
 Guess from superposition of atomic densities
 Warning:  Energy on first SCF cycle will be non-variational
 SAD guess density has 150.000000 electrons

 -----------------------------------------------------------------------
  General SCF calculation program by
  Eric Jon Sundstrom, Paul Horn, Yuezhi Mao, Dmitri Zuev, Alec White,
  David Stuck, Shaama M.S., Shane Yost, Joonho Lee, David Small,
  Daniel Levine, Susi Lehtola, Hugh Burton, Evgeny Epifanovsky
 -----------------------------------------------------------------------
 Exchange:  B97M-V      Correlation:  B97M-V
 Using SG-2 standard quadrature grid
 Nonlocal Correlation:  rVV10 with C = 0.0100 and b = 6.00 and scale = 1.00000
 Grid used for NLC:  SG-1 standard quadrature
 using 8 threads for integral computing
 -------------------------------------------------------
 OpenMP Integral computing Module                
 Release: version 1.0, May 2013, Q-Chem Inc. Pittsburgh 
 -------------------------------------------------------
 -------------------------------------------------------
 OpenMP BLAS3 based DFT computing Module                
 Release: version 1.0, May 2013, Q-Chem Inc. Pittsburgh 
 -------------------------------------------------------
 -------------------------------------------------------
 OpenMP BLAS3 based DFT computing Module                
 Release: version 1.0, May 2013, Q-Chem Inc. Pittsburgh 
 -------------------------------------------------------
 -------------------------------------------------------
 OpenMP BLAS3 based DFT computing Module                
 Release: version 1.0, May 2013, Q-Chem Inc. Pittsburgh 
 -------------------------------------------------------
 Nonlocal correlation = 0.554281865906
 A unrestricted SCF calculation will be
 performed using DIIS, GDM
 SCF converges when RMS gradient is below 1.0e-08
 ---------------------------------------
  Cycle       Energy         DIIS error
 ---------------------------------------
 Nonlocal correlation = 5.672957600662e-01
    1   -2094.8801482537      3.62e-02  
    2   -2090.3622882949      4.59e-03  Done DIIS. Switching to GDM
 ---------------------------------------
  Cycle       Energy        RMS Gradient
 ---------------------------------------
 Nonlocal correlation = 5.668417338583e-01
    1   -2090.3622882949      7.39e-01   Descent step
 Nonlocal correlation = 5.651198397602e-01
    2   -2090.4594623088      1.15e+00   Descent step
 Nonlocal correlation = 5.652374120943e-01
    3   -2090.4918181635      5.13e-01   Descent step
 Nonlocal correlation = 5.651303295331e-01
    4   -2090.4146020355      5.66e-01  Line search: overstep
 Nonlocal correlation = 5.640355284603e-01
    5   -2090.6297950948      7.75e-02   Descent step
 Nonlocal correlation = 5.632194901068e-01
    6   -2090.6572128508      2.86e-01   Descent step
 Nonlocal correlation = 5.637614399578e-01
    7   -2090.5332524876      4.50e-01  Line search: overstep
 Nonlocal correlation = 5.642677918461e-01
    8   -2090.7098370803      4.93e-02   Normal BFGS step
 Nonlocal correlation = 5.639994084347e-01
    9   -2090.7030888087      1.59e-01  Line search: overstep
 Nonlocal correlation = 5.645780928391e-01
   10   -2090.7230518973      9.14e-02   Normal BFGS step
 Nonlocal correlation = 5.642719738579e-01
   11   -2090.7214285297      7.91e-02  Line search: overstep
 Nonlocal correlation = 5.642619687292e-01
   12   -2090.7278492443      1.79e-02   Normal BFGS step
 Nonlocal correlation = 5.641492463846e-01
   13   -2090.7282999955      1.52e-02   Normal BFGS step
 Nonlocal correlation = 5.642090337188e-01
   14   -2090.7293412589      8.04e-03   Normal BFGS step
 Nonlocal correlation = 5.642318349758e-01
   15   -2090.7296269290      7.27e-03   Normal BFGS step
 Nonlocal correlation = 5.641784019309e-01
   16   -2090.7298032331      3.96e-03   Normal BFGS step
 Nonlocal correlation = 5.641736969901e-01
   17   -2090.7298819554      2.32e-03   Normal BFGS step
 Nonlocal correlation = 5.642101290608e-01
   18   -2090.7299097430      4.16e-03   Normal BFGS step
 Nonlocal correlation = 5.642007430979e-01
   19   -2090.7299313718      2.72e-03   Normal BFGS step
 Nonlocal correlation = 5.641795726017e-01
   20   -2090.7299489169      1.02e-03   Normal BFGS step
 Nonlocal correlation = 5.641899416484e-01
   21   -2090.7299538258      9.30e-04   Normal BFGS step
 Nonlocal correlation = 5.642015672903e-01
   22   -2090.7299612719      8.43e-04   Normal BFGS step
 Nonlocal correlation = 5.641991744080e-01
   23   -2090.7299654401      6.62e-04   Normal BFGS step
 Nonlocal correlation = 5.641962277344e-01
   24   -2090.7299722914      9.42e-04   Normal BFGS step
 Nonlocal correlation = 5.641987732937e-01
   25   -2090.7299798587      8.78e-04   Normal BFGS step
 Nonlocal correlation = 5.641977945914e-01
   26   -2090.7299808855      7.11e-04   Normal BFGS step
 Nonlocal correlation = 5.641971981353e-01
   27   -2090.7299830436      2.52e-04   Normal BFGS step
 Nonlocal correlation = 5.641997794667e-01
   28   -2090.7299835592      1.88e-04   Normal BFGS step
 Nonlocal correlation = 5.642003629948e-01
   29   -2090.7299839747      3.08e-04   Normal BFGS step
 Nonlocal correlation = 5.641999494389e-01
   30   -2090.7299831547      1.40e-03  Line search: overstep
 Nonlocal correlation = 5.642019251484e-01
   31   -2090.7299841467      2.69e-04   Normal BFGS step
 Nonlocal correlation = 5.642007011458e-01
   32   -2090.7299837540      6.37e-04  Line search: overstep
 Nonlocal correlation = 5.641999481610e-01
   33   -2090.7299843875      1.35e-04   Normal BFGS step
 Nonlocal correlation = 5.641987360020e-01
   34   -2090.7299845353      1.35e-04   Normal BFGS step
 Nonlocal correlation = 5.641998376040e-01
   35   -2090.7299846059      1.08e-04   Normal BFGS step
 Nonlocal correlation = 5.642001323311e-01
   36   -2090.7299846666      7.42e-05   Normal BFGS step
 Nonlocal correlation = 5.641996472058e-01
   37   -2090.7299846757      7.30e-05   Normal BFGS step
 Nonlocal correlation = 5.641997716544e-01
   38   -2090.7299846992      2.77e-05   Normal BFGS step
 Nonlocal correlation = 5.641998900606e-01
   39   -2090.7299847020      2.88e-05   Normal BFGS step
 Nonlocal correlation = 5.641998087547e-01
   40   -2090.7299847094      1.26e-05   Normal BFGS step
 Nonlocal correlation = 5.641998940916e-01
   41   -2090.7299847108      1.47e-05   Normal BFGS step
 Nonlocal correlation = 5.641998900824e-01
   42   -2090.7299847128      1.51e-05   Normal BFGS step
 Nonlocal correlation = 5.641998954906e-01
   43   -2090.7299847127      1.72e-05   Normal BFGS step
 Nonlocal correlation = 5.641998711296e-01
   44   -2090.7299847136      4.63e-06   Normal BFGS step
 Nonlocal correlation = 5.641998848981e-01
   45   -2090.7299847136      5.04e-06   Normal BFGS step
 Nonlocal correlation = 5.641998862227e-01
   46   -2090.7299847137      1.52e-06   Normal BFGS step
 Nonlocal correlation = 5.641998822045e-01
   47   -2090.7299847137      9.99e-07   Normal BFGS step
 Nonlocal correlation = 5.641998840014e-01
   48   -2090.7299847137      5.29e-07   Normal BFGS step
 Nonlocal correlation = 5.641998827126e-01
   49   -2090.7299847137      6.72e-07   Normal BFGS step
 Nonlocal correlation = 5.641998830106e-01
   50   -2090.7299847137      6.08e-07   Normal BFGS step
 Nonlocal correlation = 5.641998828314e-01
   51   -2090.7299847137      3.66e-06   Normal BFGS step
 Nonlocal correlation = 5.641998829029e-01
   52   -2090.7299847137      2.52e-07   Normal BFGS step
 Nonlocal correlation = 5.641998824965e-01
   53   -2090.7299847137      6.15e-07   Normal BFGS step
 Nonlocal correlation = 5.641998826041e-01
   54   -2090.7299847137      9.02e-08   Normal BFGS step
 Nonlocal correlation = 5.641998825855e-01
   55   -2090.7299847137      2.30e-07   Normal BFGS step
 Nonlocal correlation = 5.641998825062e-01
   56   -2090.7299847137      3.82e-08   Normal BFGS step
 Nonlocal correlation = 5.641998824642e-01
   57   -2090.7299847137      7.67e-08   Normal BFGS step
 Nonlocal correlation = 5.641998825388e-01
   58   -2090.7299847137      1.11e-08   Normal BFGS step
 Nonlocal correlation = 5.641998825174e-01
   59   -2090.7299847137      8.78e-09  Convergence criterion met
 ---------------------------------------
 SCF time:   CPU 19405.67s  wall 2432.00s 
<S^2> =          6.050704682
 SCF   energy in the final basis set =    -2090.7299847137
 Total energy in the final basis set =    -2090.7299847137
 
 --------------------------------------------------------------
 
                    Orbital Energies (a.u.)
 --------------------------------------------------------------
 
 Alpha MOs
 -- Occupied --
******* -30.438 -26.178 -26.174 -26.165 -19.580 -19.579 -14.705
-14.687 -14.679 -14.668 -14.661 -14.616 -10.554 -10.547 -10.536
-10.507 -10.504 -10.501 -10.495 -10.492 -10.490  -3.845  -2.586
 -2.584  -2.566  -1.530  -1.300  -1.292  -1.278  -1.158  -1.150
 -1.148  -1.103  -1.019  -1.011  -1.007  -0.888  -0.880  -0.866
 -0.865  -0.858  -0.842  -0.825  -0.818  -0.807  -0.804  -0.781
 -0.777  -0.739  -0.720  -0.711  -0.706  -0.698  -0.694  -0.691
 -0.690  -0.687  -0.683  -0.680  -0.665  -0.660  -0.631  -0.608
 -0.599  -0.589  -0.580  -0.572  -0.564  -0.550  -0.543  -0.539
 -0.512  -0.508  -0.506  -0.494
 -- Virtual --
 -0.441  -0.324  -0.304  -0.296  -0.265  -0.259  -0.252  -0.244
 -0.209  -0.202  -0.191  -0.183  -0.180  -0.174  -0.163  -0.153
 -0.142  -0.131  -0.130  -0.127  -0.119  -0.111  -0.100  -0.097
 -0.081  -0.075  -0.066  -0.056  -0.041  -0.016   0.006   0.032
  0.036   0.066   0.072   0.081   0.092   0.103   0.117   0.129
  0.139   0.163   0.180   0.195   0.197   0.219   0.219   0.227
  0.236   0.237   0.240   0.252   0.254   0.261   0.267   0.280
  0.291   0.309   0.331   0.335   0.346   0.367   0.373   0.380
  0.395   0.396   0.414   0.427   0.441   0.451   0.456   0.458
  0.474   0.487   0.497   0.502   0.515   0.519   0.526   0.533
  0.542   0.545   0.561   0.565   0.579   0.590   0.605   0.611
  0.633   0.634   0.649   0.659   0.670   0.698   0.720   0.736
  0.759   0.765   0.770   0.773   0.794   0.822   0.843   0.848
  0.866   0.891   0.916   0.921   0.949   0.981   0.991   1.025
  1.040   1.050   1.077   1.108   1.147   1.173   1.234   1.247
  1.266   1.421
 
 Beta MOs
 -- Occupied --
******* -30.388 -26.137 -26.133 -26.119 -19.556 -19.546 -14.706
-14.687 -14.679 -14.668 -14.661 -14.617 -10.553 -10.546 -10.536
-10.507 -10.504 -10.501 -10.495 -10.492 -10.490  -3.725  -2.470
 -2.464  -2.433  -1.484  -1.300  -1.292  -1.278  -1.158  -1.150
 -1.149  -1.040  -1.018  -1.011  -1.006  -0.888  -0.879  -0.866
 -0.865  -0.857  -0.842  -0.823  -0.816  -0.807  -0.765  -0.738
 -0.717  -0.714  -0.711  -0.706  -0.702  -0.695  -0.692  -0.689
 -0.688  -0.685  -0.682  -0.680  -0.660  -0.653  -0.619  -0.590
 -0.578  -0.569  -0.516  -0.510  -0.509  -0.505  -0.502  -0.493
 -- Virtual --
 -0.462  -0.445  -0.415  -0.399  -0.368  -0.318  -0.301  -0.291
 -0.264  -0.252  -0.246  -0.242  -0.205  -0.199  -0.188  -0.180
 -0.172  -0.162  -0.152  -0.144  -0.136  -0.130  -0.127  -0.122
 -0.118  -0.110  -0.095  -0.088  -0.080  -0.072  -0.061  -0.044
 -0.040  -0.013   0.009   0.035   0.039   0.067   0.073   0.082
  0.093   0.106   0.118   0.130   0.143   0.164   0.184   0.197
  0.199   0.219   0.221   0.228   0.238   0.238   0.242   0.254
  0.257   0.265   0.268   0.282   0.293   0.312   0.333   0.338
  0.353   0.369   0.378   0.382   0.398   0.402   0.420   0.430
  0.443   0.454   0.458   0.463   0.475   0.496   0.502   0.512
  0.517   0.520   0.530   0.540   0.547   0.550   0.569   0.574
  0.583   0.611   0.618   0.634   0.642   0.653   0.662   0.701
  0.708   0.729   0.730   0.757   0.772   0.781   0.790   0.794
  0.824   0.843   0.856   0.859   0.896   0.897   0.931   0.943
  0.970   0.993   1.010   1.034   1.050   1.062   1.084   1.147
  1.169   1.192   1.244   1.277   1.285   1.438
 --------------------------------------------------------------
 
          Ground-State Mulliken Net Atomic Charges

     Atom                 Charge (a.u.)    Spin (a.u.)
  --------------------------------------------------------
      1 Fe                    1.295514       2.392907
      2 O                    -0.222840       0.632559
      3 O                     0.118837       1.007346
      4 N                    -0.691945      -0.025758
      5 C                     0.319141       0.017012
      6 H                     0.194389      -0.000978
      7 N                    -0.424890       0.004753
      8 H                     0.332682      -0.000331
      9 C                     0.128739       0.004057
     10 H                     0.193792      -0.000641
     11 C                     0.078379      -0.003876
     12 H                     0.158759       0.000510
     13 N                    -0.695939      -0.025535
     14 C                     0.327605       0.019366
     15 H                     0.200380      -0.001375
     16 N                    -0.426231       0.005486
     17 H                     0.335621      -0.000376
     18 C                     0.141069       0.002245
     19 H                     0.197214      -0.000511
     20 C                     0.034551      -0.000897
     21 H                     0.161363       0.000361
     22 N                    -0.728843      -0.039071
     23 H                     0.345642       0.002139
     24 C                     0.013640       0.000195
     25 H                     0.186113       0.000109
     26 C                     0.083674       0.014446
     27 H                     0.189463      -0.000181
     28 N                    -0.234846      -0.018495
     29 C                     0.185987       0.014965
     30 H                     0.202980      -0.000430
  --------------------------------------------------------
  Sum of atomic charges =     2.000000
  Sum of spin   charges =     4.000000

 -----------------------------------------------------------------
                    Cartesian Multipole Moments
 -----------------------------------------------------------------
    Charge (ESU x 10^10)
                 9.6064
    Dipole Moment (Debye)
         X       3.2677      Y      -0.6284      Z      -0.5245
       Tot       3.3687
    Quadrupole Moments (Debye-Ang)
        XX      -1.9285     XY      14.2531     YY     -81.9450
        XZ       6.4679     YZ     -10.6777     ZZ     -90.1579
    Octopole Moments (Debye-Ang^2)
       XXX     145.1651    XXY     -90.6877    XYY     -17.4416
       YYY     -16.4035    XXZ     -32.3386    XYZ       0.1119
       YYZ      -2.5805    XZZ      -2.3286    YZZ      -3.4566
       ZZZ       8.4454
    Hexadecapole Moments (Debye-Ang^3)
      XXXX   -1437.8111   XXXY     289.1688   XXYY    -732.7233
      XYYY       1.8997   YYYY   -1601.9036   XXXZ      96.4988
      XXYZ    -132.0027   XYYZ      21.0548   YYYZ     -87.4679
      XXZZ    -611.2450   XYZZ      36.9372   YYZZ    -348.1855
      XZZZ      26.3118   YZZZ     -26.7421   ZZZZ    -477.7303
 -----------------------------------------------------------------
 Calculating analytic gradient of the SCF energy
 Gradient of SCF Energy
            1           2           3           4           5           6
    1   0.0002072   0.0008400   0.0003102   0.0000141   0.0004446   0.0002504
    2   0.0104492  -0.0208993   0.0077613  -0.0021256   0.0009894  -0.0012749
    3  -0.0017473  -0.0024598   0.0050337   0.0003882  -0.0008322   0.0029611
            7           8           9          10          11          12
    1  -0.0024722  -0.0026506  -0.0010719  -0.0023792   0.0013798   0.0006362
    2  -0.0011008  -0.0018331  -0.0002125   0.0003585  -0.0001614   0.0012496
    3   0.0001875   0.0014939  -0.0002182  -0.0022900  -0.0013803  -0.0019278
           13          14          15          16          17          18
    1  -0.0003623  -0.0004368   0.0001060   0.0024579   0.0032889   0.0011624
    2  -0.0013486   0.0006385  -0.0018703  -0.0000720  -0.0016309   0.0001180
    3   0.0002882  -0.0001107   0.0022089   0.0000425   0.0015749  -0.0000726
           19          20          21          22          23          24
    1   0.0020506  -0.0012581  -0.0005717   0.0012525   0.0011346  -0.0012672
    2   0.0018625   0.0003214   0.0015856  -0.0007476   0.0013340   0.0010047
    3  -0.0018612  -0.0015851  -0.0015589   0.0010157   0.0011391  -0.0004281
           25          26          27          28          29          30
    1   0.0005977  -0.0004936  -0.0017229  -0.0007665  -0.0011709   0.0004920
    2   0.0009007   0.0016961   0.0016589   0.0004383   0.0020913  -0.0011848
    3  -0.0022325  -0.0010342  -0.0019190   0.0021313   0.0003813   0.0028122
 Max gradient component =       2.090E-02
 RMS gradient           =       2.993E-03
 Gradient time:  CPU 832.76 s  wall 156.11 s
 Geometry Optimization Parameters
   NAtoms,    NIC,     NZ,  NCons,   NDum,   NFix, NCnnct, MaxDiis
       30     229      30       0       0       0       0       0


** GEOMETRY OPTIMIZATION IN DELOCALIZED INTERNAL COORDINATES **
   Searching for a Minimum

   Optimization Cycle:   1

                       Coordinates (Angstroms)
     ATOM                X               Y               Z
      1  Fe        0.2654250214   -0.2666752385    0.1052952574
      2  O         0.5544163172   -2.0891568483    0.7248127735
      3  O         0.5848049054   -3.2349563588    0.1888371195
      4  N        -1.6105380736   -0.6949334938   -0.2388332697
      5  C        -2.4554737409   -1.3774839313    0.5717408754
      6  H        -2.2402350083   -1.7560126294    1.5690296821
      7  N        -3.6479078916   -1.5168639825   -0.0525618332
      8  H        -4.4663977089   -1.9849693130    0.3377789738
      9  C        -3.5857443572   -0.9204115038   -1.3096505237
     10  H        -4.4243227237   -0.9180415470   -2.0018696160
     11  C        -2.3149172445   -0.4050290153   -1.4227726717
     12  H        -1.8709608499    0.1274595401   -2.2593869696
     13  N         2.1956518829   -0.0126924966   -0.0992061501
     14  C         3.1933610853   -0.6680738080    0.5427111617
     15  H         3.0815981252   -1.4136205884    1.3270773148
     16  N         4.3840212724   -0.2399037621    0.0617301980
     17  H         5.2987056292   -0.5691872704    0.3736474754
     18  C         4.1697158396    0.7165334799   -0.9273244646
     19  H         4.9812916559    1.1964917662   -1.4696042137
     20  C         2.8047685551    0.8602080366   -1.0240331825
     21  H         2.2416471875    1.4979389093   -1.7013310949
     22  N        -0.0146491373    1.7373653507    0.5294790589
     23  H         0.9222134470    2.0726728712    0.8083125635
     24  C        -0.6167157064    2.4568910630   -0.5909650616
     25  H        -0.0650360637    2.6507249371   -1.5090830983
     26  C        -1.8702545880    2.8218845728   -0.2053601991
     27  H        -2.6296182849    3.3617961819   -0.7680254312
     28  N        -2.1145945152    2.4202230818    1.1390874812
     29  C        -1.0447270561    1.8396540793    1.5790997691
     30  H        -0.8676672279    1.4638082787    2.5880359644
   Point Group: c1    Number of degrees of freedom:    84


   Energy is  -2090.729984714


 Attempting to Generate Delocalized Internal Coordinates

 84 Hessian modes will be used to form the next step
  Hessian Eigenvalues:
     0.002000    0.002000    0.002000    0.002000    0.008555    0.009102
     0.010811    0.010858    0.011949    0.016145    0.017912    0.018066
     0.018813    0.018818    0.019498    0.019889    0.019953    0.021266
     0.021313    0.021662    0.021696    0.022553    0.022562    0.023763
     0.025741    0.049953    0.056279    0.067198    0.085258    0.106881
     0.127815    0.137261    0.159770    0.159875    0.159965    0.159970
     0.159988    0.159991    0.159992    0.159993    0.159993    0.159999
     0.160000    0.167998    0.169238    0.172950    0.189552    0.219999
     0.220001    0.228190    0.231578    0.231606    0.238409    0.249311
     0.249393    0.250000    0.328706    0.346825    0.349849    0.349920
     0.350206    0.350546    0.350803    0.351095    0.351176    0.352158
     0.352780    0.402516    0.404592    0.406741    0.422689    0.439726
     0.439796    0.441846    0.442589    0.467078    0.467586    0.497660
     0.522203    0.522394    0.528192    0.528869    0.654819    0.778216

 Minimum Search - Taking Simple RFO Step
 Searching for Lamda that Minimizes Along All modes
 Value Taken    Lamda =  -0.00420775
 Calculated Step too Large.  Step scaled by  0.933056
 Step Taken.  Stepsize is  0.300000

                             Maximum     Tolerance    Cnvgd?
         Gradient           0.015173      0.000300      NO
         Displacement       0.107484      0.001200      NO
         Energy change     *********      0.000001      NO


 New Cartesian Coordinates Obtained by Inverse Iteration

 Displacement from previous Coordinates is:  1.100623
 ----------------------------------------------------------------
             Standard Nuclear Orientation (Angstroms)
    I     Atom           X                Y                Z
 ----------------------------------------------------------------
    1      Fe      0.2789500945    -0.2716755228     0.1190982666
    2      O       0.5605972148    -2.0481480147     0.7600127326
    3      O       0.5681888701    -3.2048214412     0.2329956349
    4      N      -1.5864803097    -0.6678992669    -0.2112690973
    5      C      -2.4190805061    -1.3730066768     0.5868345826
    6      H      -2.1882533901    -1.7929591572     1.5588507510
    7      N      -3.6210882094    -1.4657584423    -0.0187567578
    8      H      -4.4369115602    -1.9351573245     0.3653429808
    9      C      -3.5768805057    -0.8193652809    -1.2479773872
   10      H      -4.4263435466    -0.7800331839    -1.9183091180
   11      C      -2.3072807984    -0.3128623827    -1.3624359874
   12      H      -1.8718990978     0.2497353762    -2.1794062250
   13      N       2.1897183159    -0.0108256012    -0.0839068313
   14      C       3.1847894387    -0.7175206310     0.4967826174
   15      H       3.0749082993    -1.5180361751     1.2193182507
   16      N       4.3670112177    -0.2596076827     0.0339972225
   17      H       5.2809361508    -0.6128561508     0.3049678906
   18      C       4.1493794895     0.7663140692    -0.8767971869
   19      H       4.9571990763     1.2742282704    -1.3892410068
   20      C       2.7887011304     0.9253988385    -0.9442961116
   21      H       2.2187872539     1.6099257774    -1.5627481873
   22      N      -0.0065439690     1.7104955805     0.5027514273
   23      H       0.9198515644     2.0602911825     0.7910274345
   24      C      -0.5964834087     2.3842747202    -0.6435428350
   25      H      -0.0250234520     2.5762349335    -1.5459613114
   26      C      -1.8798714217     2.6816011029    -0.3084430303
   27      H      -2.6486768948     3.1589129717    -0.9056950245
   28      N      -2.1484345540     2.3018376656     1.0340651852
   29      C      -1.0624899098     1.7969535647     1.5212538681
   30      H      -0.8994158363     1.4499692431     2.5381551419
 ----------------------------------------------------------------
 Molecular Point Group                 C1    NOp =  1
 Largest Abelian Subgroup              C1    NOp =  1
 Nuclear Repulsion Energy =  1743.7676760311 hartrees
 There are       76 alpha and       72 beta electrons
 Applying Cartesian multipole field
    Component          Value
    ---------          -----
     (2,0,0)        1.00000E-12
     (0,2,0)        2.00000E-11
     (0,0,2)       -3.00000E-11
 Nucleus-field energy     =     0.0000000184 hartrees
 Requested basis set is VDZ
 There are 118 shells and 198 basis functions
 A cutoff of  1.0D-12 yielded   5831 shell pairs
 There are     17007 function pairs (     17395 Cartesian)
 Smallest overlap matrix eigenvalue = 1.55E-03
 Guess MOs from SCF MO coefficient file

 -----------------------------------------------------------------------
  General SCF calculation program by
  Eric Jon Sundstrom, Paul Horn, Yuezhi Mao, Dmitri Zuev, Alec White,
  David Stuck, Shaama M.S., Shane Yost, Joonho Lee, David Small,
  Daniel Levine, Susi Lehtola, Hugh Burton, Evgeny Epifanovsky
 -----------------------------------------------------------------------
 Exchange:  B97M-V      Correlation:  B97M-V
 Using SG-2 standard quadrature grid
 Nonlocal Correlation:  rVV10 with C = 0.0100 and b = 6.00 and scale = 1.00000
 Grid used for NLC:  SG-1 standard quadrature
 using 8 threads for integral computing
 -------------------------------------------------------
 OpenMP Integral computing Module                
 Release: version 1.0, May 2013, Q-Chem Inc. Pittsburgh 
 -------------------------------------------------------
 -------------------------------------------------------
 OpenMP BLAS3 based DFT computing Module                
 Release: version 1.0, May 2013, Q-Chem Inc. Pittsburgh 
 -------------------------------------------------------
 -------------------------------------------------------
 OpenMP BLAS3 based DFT computing Module                
 Release: version 1.0, May 2013, Q-Chem Inc. Pittsburgh 
 -------------------------------------------------------
 -------------------------------------------------------
 OpenMP BLAS3 based DFT computing Module                
 Release: version 1.0, May 2013, Q-Chem Inc. Pittsburgh 
 -------------------------------------------------------
 Nonlocal correlation = 0.562530069244
 A unrestricted SCF calculation will be
 performed using DIIS, GDM
 SCF converges when RMS gradient is below 1.0e-08
 ---------------------------------------
  Cycle       Energy         DIIS error
 ---------------------------------------
 Nonlocal correlation = 5.626654566421e-01
    1   -2090.7119865774      6.60e-04  
    2   -2090.7285262354      4.57e-04  Done DIIS. Switching to GDM
 ---------------------------------------
  Cycle       Energy        RMS Gradient
 ---------------------------------------
 Nonlocal correlation = 5.625605907935e-01
    1   -2090.7285262354      8.91e-02   Normal BFGS step
 Nonlocal correlation = 5.626403183582e-01
    2   -2090.5077588848      7.27e-01  Line search: overstep
 Nonlocal correlation = 5.625716946103e-01
    3   -2090.7319716881      1.98e-02   Normal BFGS step
 Nonlocal correlation = 5.626146413984e-01
    4   -2090.7315636651      2.19e-02  Line search: overstep
 Nonlocal correlation = 5.625793420880e-01
    5   -2090.7321954711      9.92e-03   Normal BFGS step
 Nonlocal correlation = 5.625975757201e-01
    6   -2090.7321841816      5.75e-03  Line search: overstep
 Nonlocal correlation = 5.626171894794e-01
    7   -2090.7322747703      3.64e-03   Normal BFGS step
 Nonlocal correlation = 5.626059550488e-01
    8   -2090.7322642026      3.72e-03  Line search: overstep
 Nonlocal correlation = 5.626125716994e-01
    9   -2090.7322880395      8.55e-04   Normal BFGS step
 Nonlocal correlation = 5.626066372287e-01
   10   -2090.7322904536      1.11e-03   Normal BFGS step
 Nonlocal correlation = 5.626009826756e-01
   11   -2090.7322937829      8.74e-04   Normal BFGS step
 Nonlocal correlation = 5.626026537571e-01
   12   -2090.7322966653      4.00e-04   Normal BFGS step
 Nonlocal correlation = 5.626062106608e-01
   13   -2090.7322990534      7.48e-04   Normal BFGS step
 Nonlocal correlation = 5.626018051079e-01
   14   -2090.7323009155      6.85e-04   Normal BFGS step
 Nonlocal correlation = 5.626015661972e-01
   15   -2090.7323016615      2.65e-04   Normal BFGS step
 Nonlocal correlation = 5.626048482689e-01
   16   -2090.7323022180      2.22e-04   Normal BFGS step
 Nonlocal correlation = 5.626037224916e-01
   17   -2090.7323025089      1.14e-04   Normal BFGS step
 Nonlocal correlation = 5.626021668261e-01
   18   -2090.7323025948      9.67e-05   Normal BFGS step
 Nonlocal correlation = 5.626029775583e-01
   19   -2090.7323026810      7.38e-05   Normal BFGS step
 Nonlocal correlation = 5.626035976129e-01
   20   -2090.7323027211      6.00e-05   Normal BFGS step
 Nonlocal correlation = 5.626030874480e-01
   21   -2090.7323027372      4.90e-05   Normal BFGS step
 Nonlocal correlation = 5.626027903487e-01
   22   -2090.7323027539      2.86e-05   Normal BFGS step
 Nonlocal correlation = 5.626028434963e-01
   23   -2090.7323027578      2.34e-05   Normal BFGS step
 Nonlocal correlation = 5.626029927867e-01
   24   -2090.7323027621      1.28e-05   Normal BFGS step
 Nonlocal correlation = 5.626028789280e-01
   25   -2090.7323027633      1.84e-05   Normal BFGS step
 Nonlocal correlation = 5.626027845710e-01
   26   -2090.7323027631      3.55e-05   Normal BFGS step
 Nonlocal correlation = 5.626029288962e-01
   27   -2090.7323027625      5.20e-05   Normal BFGS step
 Nonlocal correlation = 5.626029189415e-01
   28   -2090.7323027620      2.77e-05   Normal BFGS step
 Nonlocal correlation = 5.626028481549e-01
   29   -2090.7323027644      1.46e-05   Normal BFGS step
 Nonlocal correlation = 5.626028698300e-01
   30   -2090.7323027642      1.84e-05   Normal BFGS step
 Nonlocal correlation = 5.626028821087e-01
   31   -2090.7323027649      5.69e-06   Normal BFGS step
 Nonlocal correlation = 5.626028931363e-01
   32   -2090.7323027649      7.84e-06   Normal BFGS step
 Nonlocal correlation = 5.626028726022e-01
   33   -2090.7323027650      1.76e-06   Normal BFGS step
 Nonlocal correlation = 5.626028758958e-01
   34   -2090.7323027650      1.38e-06   Normal BFGS step
 Nonlocal correlation = 5.626028879294e-01
   35   -2090.7323027650      1.06e-06   Normal BFGS step
 Nonlocal correlation = 5.626028814028e-01
   36   -2090.7323027650      1.04e-06   Normal BFGS step
 Nonlocal correlation = 5.626028787572e-01
   37   -2090.7323027651      2.02e-07   Normal BFGS step
 Nonlocal correlation = 5.626028803663e-01
   38   -2090.7323027651      3.13e-07   Normal BFGS step
 Nonlocal correlation = 5.626028813648e-01
   39   -2090.7323027651      1.14e-07   Normal BFGS step
 Nonlocal correlation = 5.626028809436e-01
   40   -2090.7323027651      1.27e-07   Normal BFGS step
 Nonlocal correlation = 5.626028808117e-01
   41   -2090.7323027651      2.83e-08   Normal BFGS step
 Nonlocal correlation = 5.626028807819e-01
   42   -2090.7323027651      4.46e-08   Normal BFGS step
 Nonlocal correlation = 5.626028809114e-01
   43   -2090.7323027651      1.14e-08   Normal BFGS step
 Nonlocal correlation = 5.626028808883e-01
   44   -2090.7323027651      1.77e-08   Normal BFGS step
 Nonlocal correlation = 5.626028808140e-01
   45   -2090.7323027651      4.16e-08   Normal BFGS step
 Nonlocal correlation = 5.626028808105e-01
   46   -2090.7323027651      1.45e-07   Normal BFGS step
 Nonlocal correlation = 5.626028809136e-01
   47   -2090.7323027651      5.71e-09  Convergence criterion met
 ---------------------------------------
 SCF time:   CPU 15625.81s  wall 1958.00s 
<S^2> =          6.045570782
 SCF   energy in the final basis set =    -2090.7323027651
 Total energy in the final basis set =    -2090.7323027651
 
 --------------------------------------------------------------
 
                    Orbital Energies (a.u.)
 --------------------------------------------------------------
 
 Alpha MOs
 -- Occupied --
******* -30.443 -26.182 -26.179 -26.170 -19.578 -19.577 -14.708
-14.688 -14.680 -14.669 -14.662 -14.618 -10.555 -10.548 -10.539
-10.509 -10.506 -10.503 -10.496 -10.493 -10.493  -3.850  -2.590
 -2.589  -2.571  -1.524  -1.306  -1.298  -1.284  -1.162  -1.153
 -1.153  -1.105  -1.023  -1.016  -1.011  -0.893  -0.884  -0.871
 -0.869  -0.862  -0.848  -0.829  -0.822  -0.812  -0.804  -0.778
 -0.775  -0.745  -0.723  -0.714  -0.711  -0.702  -0.698  -0.696
 -0.694  -0.690  -0.687  -0.684  -0.670  -0.663  -0.634  -0.613
 -0.603  -0.593  -0.583  -0.573  -0.568  -0.552  -0.543  -0.540
 -0.517  -0.511  -0.509  -0.495
 -- Virtual --
 -0.438  -0.325  -0.305  -0.297  -0.267  -0.258  -0.252  -0.246
 -0.209  -0.203  -0.192  -0.185  -0.180  -0.174  -0.162  -0.153
 -0.145  -0.131  -0.130  -0.127  -0.119  -0.111  -0.097  -0.095
 -0.081  -0.075  -0.065  -0.055  -0.037  -0.017   0.008   0.031
  0.035   0.067   0.076   0.079   0.095   0.102   0.117   0.128
  0.141   0.164   0.181   0.195   0.198   0.219   0.221   0.228
  0.236   0.240   0.242   0.251   0.254   0.261   0.269   0.281
  0.296   0.309   0.332   0.338   0.349   0.373   0.375   0.384
  0.397   0.400   0.418   0.430   0.444   0.452   0.456   0.461
  0.473   0.489   0.501   0.505   0.517   0.524   0.529   0.538
  0.543   0.546   0.564   0.572   0.592   0.595   0.615   0.623
  0.627   0.641   0.656   0.676   0.691   0.706   0.724   0.740
  0.764   0.770   0.776   0.780   0.801   0.830   0.844   0.859
  0.870   0.911   0.919   0.933   0.954   0.984   0.996   1.029
  1.045   1.061   1.084   1.121   1.150   1.181   1.247   1.251
  1.278   1.421
 
 Beta MOs
 -- Occupied --
******* -30.392 -26.142 -26.138 -26.124 -19.556 -19.544 -14.709
-14.688 -14.680 -14.670 -14.663 -14.618 -10.555 -10.548 -10.538
-10.509 -10.506 -10.503 -10.496 -10.493 -10.492  -3.729  -2.474
 -2.468  -2.437  -1.479  -1.305  -1.297  -1.285  -1.162  -1.153
 -1.153  -1.044  -1.022  -1.015  -1.010  -0.892  -0.883  -0.870
 -0.869  -0.861  -0.847  -0.827  -0.820  -0.812  -0.766  -0.743
 -0.721  -0.716  -0.713  -0.709  -0.705  -0.699  -0.697  -0.692
 -0.692  -0.688  -0.685  -0.683  -0.663  -0.658  -0.622  -0.594
 -0.581  -0.571  -0.521  -0.513  -0.512  -0.507  -0.505  -0.495
 -- Virtual --
 -0.463  -0.447  -0.418  -0.402  -0.366  -0.319  -0.301  -0.292
 -0.266  -0.254  -0.244  -0.243  -0.204  -0.201  -0.188  -0.179
 -0.171  -0.161  -0.152  -0.147  -0.139  -0.130  -0.127  -0.123
 -0.118  -0.110  -0.093  -0.088  -0.080  -0.072  -0.061  -0.041
 -0.035  -0.014   0.012   0.034   0.038   0.068   0.077   0.080
  0.096   0.105   0.118   0.129   0.144   0.166   0.185   0.198
  0.199   0.220   0.223   0.230   0.238   0.242   0.244   0.253
  0.257   0.265   0.270   0.282   0.298   0.312   0.334   0.341
  0.356   0.376   0.379   0.386   0.400   0.405   0.424   0.432
  0.445   0.456   0.458   0.465   0.475   0.500   0.506   0.513
  0.518   0.527   0.533   0.546   0.547   0.554   0.570   0.579
  0.597   0.618   0.629   0.634   0.645   0.659   0.699   0.701
  0.713   0.729   0.738   0.759   0.775   0.790   0.796   0.801
  0.831   0.846   0.858   0.870   0.899   0.918   0.934   0.948
  0.976   0.998   1.012   1.033   1.052   1.078   1.092   1.158
  1.178   1.201   1.254   1.281   1.298   1.438
 --------------------------------------------------------------
 
          Ground-State Mulliken Net Atomic Charges

     Atom                 Charge (a.u.)    Spin (a.u.)
  --------------------------------------------------------
      1 Fe                    1.301453       2.409341
      2 O                    -0.235656       0.611118
      3 O                     0.111841       0.993318
      4 N                    -0.699722      -0.023104
      5 C                     0.324118       0.019128
      6 H                     0.193586      -0.001188
      7 N                    -0.418814       0.004819
      8 H                     0.330614      -0.000336
      9 C                     0.130332       0.005505
     10 H                     0.190742      -0.000672
     11 C                     0.088560      -0.005183
     12 H                     0.157652       0.000457
     13 N                    -0.697359      -0.023712
     14 C                     0.334325       0.023484
     15 H                     0.200293      -0.001833
     16 N                    -0.420535       0.005560
     17 H                     0.333442      -0.000387
     18 C                     0.145372       0.004103
     19 H                     0.194539      -0.000612
     20 C                     0.033001      -0.002521
     21 H                     0.159520       0.000368
     22 N                    -0.733036      -0.035358
     23 H                     0.346637       0.002115
     24 C                     0.005014      -0.002214
     25 H                     0.188602       0.000177
     26 C                     0.091205       0.020113
     27 H                     0.185776      -0.000486
     28 N                    -0.237983      -0.018354
     29 C                     0.194564       0.016870
     30 H                     0.201919      -0.000515
  --------------------------------------------------------
  Sum of atomic charges =     2.000000
  Sum of spin   charges =     4.000000

 -----------------------------------------------------------------
                    Cartesian Multipole Moments
 -----------------------------------------------------------------
    Charge (ESU x 10^10)
                 9.6064
    Dipole Moment (Debye)
         X       3.3473      Y      -0.4895      Z      -0.5134
       Tot       3.4216
    Quadrupole Moments (Debye-Ang)
        XX      -2.1399     XY      13.5444     YY     -82.6203
        XZ       5.7451     YZ     -10.9056     ZZ     -91.0911
    Octopole Moments (Debye-Ang^2)
       XXX     145.7946    XXY     -88.1847    XYY     -11.4518
       YYY     -18.6057    XXZ     -33.3094    XYZ       1.6153
       YYZ      -1.4162    XZZ      -5.2188    YZZ      -1.2969
       ZZZ       9.8735
    Hexadecapole Moments (Debye-Ang^3)
      XXXX   -1432.9741   XXXY     269.7589   XXYY    -716.9552
      XYYY      15.5335   YYYY   -1543.0238   XXXZ      80.4843
      XXYZ    -127.3062   XYYZ      13.8960   YYYZ     -56.1775
      XXZZ    -613.6810   XYZZ      29.6259   YYZZ    -324.7603
      XZZZ      19.5312   YZZZ       0.2989   ZZZZ    -452.9327
 -----------------------------------------------------------------
 Calculating analytic gradient of the SCF energy
 Gradient of SCF Energy
            1           2           3           4           5           6
    1  -0.0010250   0.0011299   0.0003209  -0.0020622   0.0011529  -0.0002476
    2   0.0104985  -0.0159849   0.0066854  -0.0021815   0.0007090   0.0000759
    3  -0.0014007  -0.0017826   0.0039809   0.0004313   0.0005031   0.0000583
            7           8           9          10          11          12
    1   0.0000148   0.0000249   0.0004862   0.0000905  -0.0000920   0.0000613
    2   0.0005030  -0.0001592  -0.0003583   0.0002696   0.0009883   0.0009387
    3  -0.0005206   0.0001418  -0.0006484  -0.0001456   0.0004296  -0.0000975
           13          14          15          16          17          18
    1   0.0027709  -0.0012023   0.0001877  -0.0001183   0.0000177  -0.0003360
    2  -0.0013461   0.0003070  -0.0000950   0.0005395  -0.0003172  -0.0001257
    3  -0.0001041   0.0004026   0.0002670  -0.0002087   0.0001595  -0.0000771
           19          20          21          22          23          24
    1  -0.0002099  -0.0000311  -0.0000571  -0.0004812   0.0003910  -0.0008407
    2   0.0001001   0.0003074   0.0002275  -0.0049846   0.0004741   0.0023129
    3  -0.0002076  -0.0003048  -0.0000876  -0.0015930   0.0000646   0.0003676
           25          26          27          28          29          30
    1   0.0000187   0.0008707   0.0000191   0.0008373  -0.0014518  -0.0002387
    2  -0.0001401  -0.0011492  -0.0002267  -0.0013090   0.0038628  -0.0004256
    3  -0.0001334  -0.0018063  -0.0001076   0.0023067   0.0001846  -0.0000712
 Max gradient component =       1.598E-02
 RMS gradient           =       2.417E-03
 Gradient time:  CPU 832.04 s  wall 155.39 s
 Geometry Optimization Parameters
   NAtoms,    NIC,     NZ,  NCons,   NDum,   NFix, NCnnct, MaxDiis
       30     229      30       0       0       0       0       0

 Cartesian Hessian Update
 Hessian Updated using BFGS Update


** GEOMETRY OPTIMIZATION IN DELOCALIZED INTERNAL COORDINATES **
   Searching for a Minimum

   Optimization Cycle:   2

                       Coordinates (Angstroms)
     ATOM                X               Y               Z
      1  Fe        0.2789500945   -0.2716755228    0.1190982666
      2  O         0.5605972148   -2.0481480147    0.7600127326
      3  O         0.5681888701   -3.2048214412    0.2329956349
      4  N        -1.5864803097   -0.6678992669   -0.2112690973
      5  C        -2.4190805061   -1.3730066768    0.5868345826
      6  H        -2.1882533901   -1.7929591572    1.5588507510
      7  N        -3.6210882094   -1.4657584423   -0.0187567578
      8  H        -4.4369115602   -1.9351573245    0.3653429808
      9  C        -3.5768805057   -0.8193652809   -1.2479773872
     10  H        -4.4263435466   -0.7800331839   -1.9183091180
     11  C        -2.3072807984   -0.3128623827   -1.3624359874
     12  H        -1.8718990978    0.2497353762   -2.1794062250
     13  N         2.1897183159   -0.0108256012   -0.0839068313
     14  C         3.1847894387   -0.7175206310    0.4967826174
     15  H         3.0749082993   -1.5180361751    1.2193182507
     16  N         4.3670112177   -0.2596076827    0.0339972225
     17  H         5.2809361508   -0.6128561508    0.3049678906
     18  C         4.1493794895    0.7663140692   -0.8767971869
     19  H         4.9571990763    1.2742282704   -1.3892410068
     20  C         2.7887011304    0.9253988385   -0.9442961116
     21  H         2.2187872539    1.6099257774   -1.5627481873
     22  N        -0.0065439690    1.7104955805    0.5027514273
     23  H         0.9198515644    2.0602911825    0.7910274345
     24  C        -0.5964834087    2.3842747202   -0.6435428350
     25  H        -0.0250234520    2.5762349335   -1.5459613114
     26  C        -1.8798714217    2.6816011029   -0.3084430303
     27  H        -2.6486768948    3.1589129717   -0.9056950245
     28  N        -2.1484345540    2.3018376656    1.0340651852
     29  C        -1.0624899098    1.7969535647    1.5212538681
     30  H        -0.8994158363    1.4499692431    2.5381551419
   Point Group: c1    Number of degrees of freedom:    84


   Energy is  -2090.732302765

 Hessian Updated using BFGS Update

 82 Hessian modes will be used to form the next step
  Hessian Eigenvalues:
     0.001886    0.002273    0.008785    0.010330    0.010810    0.011528
     0.012318    0.016824    0.017920    0.018006    0.018814    0.018857
     0.019652    0.019917    0.020112    0.021275    0.021342    0.021655
     0.021699    0.022556    0.022570    0.023763    0.025851    0.049945
     0.053509    0.067304    0.081906    0.102966    0.111866    0.137729
     0.139940    0.159804    0.159903    0.159968    0.159988    0.159989
     0.159992    0.159993    0.159997    0.159999    0.160049    0.160222
     0.168484    0.176781    0.190089    0.219986    0.220672    0.228341
     0.231583    0.233275    0.243878    0.248963    0.249328    0.260298
     0.327955    0.347112    0.349853    0.350036    0.350371    0.350603
     0.350984    0.351071    0.351872    0.352349    0.355638    0.400003
     0.405007    0.407993    0.422423    0.439758    0.440149    0.442112
     0.443332    0.466235    0.467388    0.498254    0.522288    0.527002
     0.528497    0.537093    0.659995    0.763842

 Minimum Search - Taking Simple RFO Step
 Searching for Lamda that Minimizes Along All modes
 Value Taken    Lamda =  -0.00243220
 Calculated Step too Large.  Step scaled by  0.690680
 Step Taken.  Stepsize is  0.300000

                             Maximum     Tolerance    Cnvgd?
         Gradient           0.007602      0.000300      NO
         Displacement       0.179488      0.001200      NO
         Energy change     -0.002318      0.000001      NO


 New Cartesian Coordinates Obtained by Inverse Iteration

 Displacement from previous Coordinates is:  0.882365
 ----------------------------------------------------------------
             Standard Nuclear Orientation (Angstroms)
    I     Atom           X                Y                Z
 ----------------------------------------------------------------
    1      Fe      0.2770624181    -0.2648684256     0.0987511157
    2      O       0.5535096403    -2.0081825573     0.7168789092
    3      O       0.5367184214    -3.1635590840     0.1713108321
    4      N      -1.5813933736    -0.6594425791    -0.2166879037
    5      C      -2.4187068452    -1.2990241128     0.6290294504
    6      H      -2.1912289320    -1.6422242882     1.6292981693
    7      N      -3.6190928840    -1.4268710029     0.0319560628
    8      H      -4.4391195975    -1.8552858928     0.4486111122
    9      C      -3.5661904995    -0.8855597557    -1.2445814178
   10      H      -4.4113662448    -0.9020505505    -1.9178676309
   11      C      -2.2913561615    -0.4071032404    -1.3992074965
   12      H      -1.8447222257     0.0665227762    -2.2623702741
   13      N       2.1780133568    -0.0030806785    -0.0927261271
   14      C       3.1661847252    -0.7514928771     0.4434240124
   15      H       3.0477722582    -1.5919540026     1.1143196924
   16      N       4.3499047540    -0.2762122665     0.0089413421
   17      H       5.2602781607    -0.6487907291     0.2569517543
   18      C       4.1413613073     0.8020669618    -0.8384600981
   19      H       4.9541608304     1.3297543658    -1.3175519186
   20      C       2.7832563483     0.9734597838    -0.8986063199
   21      H       2.2177118561     1.6934733729    -1.4764989369
   22      N      -0.0051064836     1.7035925475     0.5127894269
   23      H       0.9141547891     2.0423264481     0.8304473574
   24      C      -0.5648641589     2.3948387692    -0.6333913458
   25      H       0.0298489417     2.6021767436    -1.5152357614
   26      C      -1.8491969058     2.7053886766    -0.3153374514
   27      H      -2.5979895354     3.2088431129    -0.9131849601
   28      N      -2.1552419802     2.2860720955     1.0040074750
   29      C      -1.0873737688     1.7517796181     1.5008292509
   30      H      -0.9491274650     1.3810471326     2.5108295681
 ----------------------------------------------------------------
 Molecular Point Group                 C1    NOp =  1
 Largest Abelian Subgroup              C1    NOp =  1
 Nuclear Repulsion Energy =  1751.4252057521 hartrees
 There are       76 alpha and       72 beta electrons
 Applying Cartesian multipole field
    Component          Value
    ---------          -----
     (2,0,0)        1.00000E-12
     (0,2,0)        2.00000E-11
     (0,0,2)       -3.00000E-11
 Nucleus-field energy     =     0.0000000183 hartrees
 Requested basis set is VDZ
 There are 118 shells and 198 basis functions
 A cutoff of  1.0D-12 yielded   5844 shell pairs
 There are     17054 function pairs (     17442 Cartesian)
 Smallest overlap matrix eigenvalue = 1.60E-03
 Guess MOs from SCF MO coefficient file

 -----------------------------------------------------------------------
  General SCF calculation program by
  Eric Jon Sundstrom, Paul Horn, Yuezhi Mao, Dmitri Zuev, Alec White,
  David Stuck, Shaama M.S., Shane Yost, Joonho Lee, David Small,
  Daniel Levine, Susi Lehtola, Hugh Burton, Evgeny Epifanovsky
 -----------------------------------------------------------------------
 Exchange:  B97M-V      Correlation:  B97M-V
 Using SG-2 standard quadrature grid
 Nonlocal Correlation:  rVV10 with C = 0.0100 and b = 6.00 and scale = 1.00000
 Grid used for NLC:  SG-1 standard quadrature
 using 8 threads for integral computing
 -------------------------------------------------------
 OpenMP Integral computing Module                
 Release: version 1.0, May 2013, Q-Chem Inc. Pittsburgh 
 -------------------------------------------------------
 -------------------------------------------------------
 OpenMP BLAS3 based DFT computing Module                
 Release: version 1.0, May 2013, Q-Chem Inc. Pittsburgh 
 -------------------------------------------------------
 -------------------------------------------------------
 OpenMP BLAS3 based DFT computing Module                
 Release: version 1.0, May 2013, Q-Chem Inc. Pittsburgh 
 -------------------------------------------------------
 -------------------------------------------------------
 OpenMP BLAS3 based DFT computing Module                
 Release: version 1.0, May 2013, Q-Chem Inc. Pittsburgh 
 -------------------------------------------------------
 Nonlocal correlation = 0.562129257000
 A unrestricted SCF calculation will be
 performed using DIIS, GDM
 SCF converges when RMS gradient is below 1.0e-08
 ---------------------------------------
  Cycle       Energy         DIIS error
 ---------------------------------------
 Nonlocal correlation = 5.621797788010e-01
    1   -2090.7142256880      6.27e-04  
    2   -2090.7306239700      3.62e-04  Done DIIS. Switching to GDM
 ---------------------------------------
  Cycle       Energy        RMS Gradient
 ---------------------------------------
 Nonlocal correlation = 5.621119336536e-01
    1   -2090.7306239700      7.65e-02   Normal BFGS step
 Nonlocal correlation = 5.621628231572e-01
    2   -2090.5766557079      5.00e-01  Line search: overstep
 Nonlocal correlation = 5.621382057557e-01
    3   -2090.7327756832      1.60e-02   Normal BFGS step
 Nonlocal correlation = 5.621542706596e-01
    4   -2090.7324773325      1.59e-02  Line search: overstep
 Nonlocal correlation = 5.621329671271e-01
    5   -2090.7328910081      9.37e-03   Normal BFGS step
 Nonlocal correlation = 5.621548236999e-01
    6   -2090.7329101526      3.45e-03   Normal BFGS step
 Nonlocal correlation = 5.621554627654e-01
    7   -2090.7329379202      3.12e-03   Normal BFGS step
 Nonlocal correlation = 5.621429628327e-01
    8   -2090.7329447336      2.45e-03   Normal BFGS step
 Nonlocal correlation = 5.621498238801e-01
    9   -2090.7329523300      6.88e-04   Normal BFGS step
 Nonlocal correlation = 5.621506549211e-01
   10   -2090.7329523779      1.26e-03   Normal BFGS step
 Nonlocal correlation = 5.621469309608e-01
   11   -2090.7329551852      3.90e-04   Normal BFGS step
 Nonlocal correlation = 5.621470229271e-01
   12   -2090.7329554464      3.34e-04   Normal BFGS step
 Nonlocal correlation = 5.621503446478e-01
   13   -2090.7329563668      2.25e-04   Normal BFGS step
 Nonlocal correlation = 5.621495689676e-01
   14   -2090.7329568486      2.07e-04   Normal BFGS step
 Nonlocal correlation = 5.621475008758e-01
   15   -2090.7329571582      2.15e-04   Normal BFGS step
 Nonlocal correlation = 5.621485105965e-01
   16   -2090.7329572776      9.68e-05   Normal BFGS step
 Nonlocal correlation = 5.621494001070e-01
   17   -2090.7329573362      8.28e-05   Normal BFGS step
 Nonlocal correlation = 5.621490927300e-01
   18   -2090.7329573685      4.82e-05   Normal BFGS step
 Nonlocal correlation = 5.621487888412e-01
   19   -2090.7329573973      3.86e-05   Normal BFGS step
 Nonlocal correlation = 5.621489444150e-01
   20   -2090.7329574148      4.49e-05   Normal BFGS step
 Nonlocal correlation = 5.621493160351e-01
   21   -2090.7329574280      3.38e-05   Normal BFGS step
 Nonlocal correlation = 5.621493482294e-01
   22   -2090.7329574334      3.03e-05   Normal BFGS step
 Nonlocal correlation = 5.621492838862e-01
   23   -2090.7329574369      5.33e-05   Normal BFGS step
 Nonlocal correlation = 5.621493362897e-01
   24   -2090.7329574179      1.76e-04  Line search: overstep
 Nonlocal correlation = 5.621490414273e-01
   25   -2090.7329574380      1.15e-05   Normal BFGS step
 Nonlocal correlation = 5.621491966040e-01
   26   -2090.7329574387      7.85e-06   Normal BFGS step
 Nonlocal correlation = 5.621492980400e-01
   27   -2090.7329574391      1.23e-05   Normal BFGS step
 Nonlocal correlation = 5.621492094076e-01
   28   -2090.7329574390      1.16e-05   Normal BFGS step
 Nonlocal correlation = 5.621491561242e-01
   29   -2090.7329574396      2.85e-06   Normal BFGS step
 Nonlocal correlation = 5.621492094091e-01
   30   -2090.7329574395      4.83e-06   Normal BFGS step
 Nonlocal correlation = 5.621492253476e-01
   31   -2090.7329574396      3.60e-06   Normal BFGS step
 Nonlocal correlation = 5.621492016589e-01
   32   -2090.7329574396      4.01e-06   Normal BFGS step
 Nonlocal correlation = 5.621492052352e-01
   33   -2090.7329574397      7.58e-07   Normal BFGS step
 Nonlocal correlation = 5.621492054904e-01
   34   -2090.7329574397      1.51e-06   Normal BFGS step
 Nonlocal correlation = 5.621492052892e-01
   35   -2090.7329574397      3.78e-07   Normal BFGS step
 Nonlocal correlation = 5.621492050039e-01
   36   -2090.7329574397      4.85e-07   Normal BFGS step
 Nonlocal correlation = 5.621492055691e-01
   37   -2090.7329574397      1.45e-07   Normal BFGS step
 Nonlocal correlation = 5.621492054866e-01
   38   -2090.7329574397      1.00e-07   Normal BFGS step
 Nonlocal correlation = 5.621492055150e-01
   39   -2090.7329574397      4.34e-08   Normal BFGS step
 Nonlocal correlation = 5.621492054080e-01
   40   -2090.7329574397      5.99e-08   Normal BFGS step
 Nonlocal correlation = 5.621492055821e-01
   41   -2090.7329574397      1.85e-08   Normal BFGS step
 Nonlocal correlation = 5.621492055358e-01
   42   -2090.7329574397      1.96e-08   Normal BFGS step
 Nonlocal correlation = 5.621492055988e-01
   43   -2090.7329574397      4.28e-08   Normal BFGS step
 Nonlocal correlation = 5.621492054583e-01
   44   -2090.7329574397      1.83e-07   Normal BFGS step
 Nonlocal correlation = 5.621492055936e-01
   45   -2090.7329574397      6.84e-09  Convergence criterion met
 ---------------------------------------
 SCF time:   CPU 15014.68s  wall 1882.00s 
<S^2> =          6.043194090
 SCF   energy in the final basis set =    -2090.7329574397
 Total energy in the final basis set =    -2090.7329574397
 
 --------------------------------------------------------------
 
                    Orbital Energies (a.u.)
 --------------------------------------------------------------
 
 Alpha MOs
 -- Occupied --
******* -30.447 -26.187 -26.183 -26.174 -19.576 -19.573 -14.708
-14.689 -14.681 -14.670 -14.662 -14.619 -10.556 -10.548 -10.539
-10.510 -10.507 -10.504 -10.496 -10.493 -10.493  -3.854  -2.594
 -2.594  -2.576  -1.517  -1.309  -1.300  -1.287  -1.165  -1.155
 -1.154  -1.107  -1.025  -1.017  -1.012  -0.896  -0.885  -0.873
 -0.871  -0.863  -0.850  -0.831  -0.823  -0.814  -0.804  -0.775
 -0.772  -0.747  -0.726  -0.716  -0.713  -0.704  -0.700  -0.698
 -0.696  -0.692  -0.688  -0.684  -0.672  -0.664  -0.636  -0.616
 -0.605  -0.598  -0.585  -0.574  -0.570  -0.554  -0.544  -0.540
 -0.518  -0.512  -0.510  -0.496
 -- Virtual --
 -0.437  -0.326  -0.306  -0.297  -0.268  -0.257  -0.252  -0.247
 -0.209  -0.203  -0.194  -0.185  -0.180  -0.177  -0.162  -0.151
 -0.144  -0.131  -0.129  -0.127  -0.118  -0.112  -0.096  -0.095
 -0.082  -0.075  -0.065  -0.054  -0.034  -0.018   0.008   0.032
  0.037   0.068   0.074   0.078   0.091   0.101   0.115   0.127
  0.140   0.164   0.184   0.194   0.196   0.219   0.221   0.227
  0.236   0.239   0.241   0.251   0.255   0.263   0.268   0.281
  0.295   0.308   0.332   0.337   0.352   0.370   0.377   0.384
  0.397   0.401   0.422   0.430   0.445   0.452   0.455   0.460
  0.473   0.489   0.502   0.506   0.517   0.522   0.527   0.536
  0.543   0.546   0.568   0.569   0.587   0.596   0.619   0.626
  0.636   0.644   0.659   0.674   0.686   0.697   0.721   0.744
  0.763   0.767   0.782   0.789   0.810   0.830   0.842   0.865
  0.871   0.905   0.919   0.940   0.957   0.987   1.002   1.033
  1.047   1.066   1.086   1.128   1.155   1.178   1.251   1.258
  1.278   1.423
 
 Beta MOs
 -- Occupied --
******* -30.396 -26.145 -26.142 -26.128 -19.555 -19.541 -14.709
-14.689 -14.681 -14.671 -14.663 -14.619 -10.556 -10.548 -10.539
-10.510 -10.506 -10.504 -10.496 -10.493 -10.492  -3.733  -2.478
 -2.471  -2.441  -1.473  -1.308  -1.299  -1.287  -1.165  -1.155
 -1.155  -1.048  -1.024  -1.016  -1.012  -0.895  -0.885  -0.873
 -0.871  -0.863  -0.849  -0.829  -0.821  -0.814  -0.767  -0.745
 -0.723  -0.718  -0.714  -0.710  -0.706  -0.701  -0.699  -0.694
 -0.692  -0.689  -0.686  -0.683  -0.664  -0.660  -0.623  -0.595
 -0.583  -0.572  -0.522  -0.515  -0.513  -0.509  -0.507  -0.496
 -- Virtual --
 -0.464  -0.447  -0.421  -0.405  -0.365  -0.319  -0.302  -0.293
 -0.267  -0.253  -0.246  -0.242  -0.203  -0.201  -0.187  -0.179
 -0.173  -0.161  -0.152  -0.148  -0.139  -0.130  -0.127  -0.123
 -0.117  -0.111  -0.093  -0.089  -0.080  -0.073  -0.062  -0.040
 -0.033  -0.015   0.012   0.034   0.039   0.069   0.075   0.079
  0.093   0.104   0.117   0.128   0.144   0.165   0.187   0.197
  0.198   0.220   0.224   0.230   0.238   0.241   0.242   0.254
  0.257   0.266   0.269   0.282   0.298   0.310   0.334   0.339
  0.360   0.373   0.380   0.387   0.403   0.406   0.427   0.434
  0.446   0.455   0.457   0.466   0.475   0.500   0.506   0.513
  0.518   0.524   0.533   0.543   0.547   0.553   0.574   0.578
  0.590   0.619   0.634   0.641   0.650   0.661   0.684   0.699
  0.711   0.728   0.742   0.761   0.772   0.790   0.804   0.810
  0.837   0.849   0.856   0.876   0.902   0.910   0.935   0.949
  0.979   1.001   1.021   1.037   1.054   1.078   1.100   1.165
  1.181   1.202   1.262   1.284   1.298   1.441
 --------------------------------------------------------------
 
          Ground-State Mulliken Net Atomic Charges

     Atom                 Charge (a.u.)    Spin (a.u.)
  --------------------------------------------------------
      1 Fe                    1.306109       2.432403
      2 O                    -0.245846       0.589036
      3 O                     0.106219       0.978788
      4 N                    -0.698702      -0.021635
      5 C                     0.325940       0.018183
      6 H                     0.191832      -0.001023
      7 N                    -0.414692       0.005143
      8 H                     0.329825      -0.000324
      9 C                     0.129255       0.005493
     10 H                     0.189846      -0.000653
     11 C                     0.088699      -0.004999
     12 H                     0.158408       0.000548
     13 N                    -0.698462      -0.021905
     14 C                     0.338757       0.025579
     15 H                     0.200638      -0.002110
     16 N                    -0.417009       0.005686
     17 H                     0.332595      -0.000400
     18 C                     0.147153       0.005294
     19 H                     0.193349      -0.000658
     20 C                     0.032739      -0.003541
     21 H                     0.158962       0.000358
     22 N                    -0.735763      -0.031538
     23 H                     0.347795       0.002153
     24 C                     0.008072      -0.005341
     25 H                     0.189378       0.000286
     26 C                     0.090336       0.025639
     27 H                     0.185266      -0.000680
     28 N                    -0.238362      -0.018513
     29 C                     0.197357       0.019387
     30 H                     0.200306      -0.000658
  --------------------------------------------------------
  Sum of atomic charges =     2.000000
  Sum of spin   charges =     4.000000

 -----------------------------------------------------------------
                    Cartesian Multipole Moments
 -----------------------------------------------------------------
    Charge (ESU x 10^10)
                 9.6064
    Dipole Moment (Debye)
         X       3.3554      Y      -0.3194      Z      -0.5188
       Tot       3.4103
    Quadrupole Moments (Debye-Ang)
        XX      -2.4085     XY      13.4373     YY     -83.0065
        XZ       4.6348     YZ     -10.2541     ZZ     -91.0438
    Octopole Moments (Debye-Ang^2)
       XXX     145.7352    XXY     -88.7974    XYY      -7.4102
       YYY     -13.5216    XXZ     -30.7240    XYZ       1.0159
       YYZ      -2.3859    XZZ      -9.1250    YZZ      -3.1065
       ZZZ      11.4085
    Hexadecapole Moments (Debye-Ang^3)
      XXXX   -1424.6019   XXXY     260.0885   XXYY    -709.9905
      XYYY      -3.9111   YYYY   -1530.1136   XXXZ      64.2081
      XXYZ    -123.3604   XYYZ      15.9996   YYYZ     -62.6739
      XXZZ    -611.5605   XYZZ      30.3955   YYZZ    -322.1470
      XZZZ      26.3534   YZZZ      -2.0742   ZZZZ    -441.6908
 -----------------------------------------------------------------
 Calculating analytic gradient of the SCF energy
 Gradient of SCF Energy
            1           2           3           4           5           6
    1  -0.0010736   0.0000378   0.0004900  -0.0004391   0.0005687  -0.0002193
    2   0.0072645  -0.0073276   0.0039324   0.0016244  -0.0010251   0.0004165
    3  -0.0004280  -0.0021157   0.0023538   0.0021178  -0.0008733  -0.0013346
            7           8           9          10          11          12
    1   0.0004518   0.0012398   0.0006504   0.0011707  -0.0002836  -0.0006099
    2   0.0011449   0.0006205   0.0004299  -0.0001109  -0.0016636  -0.0009596
    3  -0.0001311  -0.0006100   0.0001660   0.0009700  -0.0004219   0.0009149
           13          14          15          16          17          18
    1   0.0020067  -0.0012642   0.0002009  -0.0005476  -0.0015480  -0.0004630
    2  -0.0010418   0.0004269   0.0008954   0.0005314   0.0006223  -0.0001714
    3   0.0008582  -0.0003286  -0.0006611  -0.0002247  -0.0004982   0.0005131
           19          20          21          22          23          24
    1  -0.0011199   0.0000333   0.0001750  -0.0001978  -0.0002570  -0.0008607
    2  -0.0008954  -0.0006956  -0.0006322  -0.0018516  -0.0001174   0.0003211
    3   0.0005975  -0.0000298   0.0005067  -0.0018449  -0.0005811   0.0000314
           25          26          27          28          29          30
    1  -0.0002004   0.0025106   0.0008339   0.0012641  -0.0023155  -0.0002337
    2  -0.0006937   0.0006237  -0.0006666  -0.0006262  -0.0006969   0.0003185
    3   0.0008621  -0.0001872   0.0009652   0.0010278  -0.0001942  -0.0014193
 Max gradient component =       7.328E-03
 RMS gradient           =       1.502E-03
 Gradient time:  CPU 833.81 s  wall 157.20 s
 Geometry Optimization Parameters
   NAtoms,    NIC,     NZ,  NCons,   NDum,   NFix, NCnnct, MaxDiis
       30     229      30       0       0       0       0       0

 Cartesian Hessian Update
 Hessian Updated using BFGS Update


** GEOMETRY OPTIMIZATION IN DELOCALIZED INTERNAL COORDINATES **
   Searching for a Minimum

   Optimization Cycle:   3

                       Coordinates (Angstroms)
     ATOM                X               Y               Z
      1  Fe        0.2770624181   -0.2648684256    0.0987511157
      2  O         0.5535096403   -2.0081825573    0.7168789092
      3  O         0.5367184214   -3.1635590840    0.1713108321
      4  N        -1.5813933736   -0.6594425791   -0.2166879037
      5  C        -2.4187068452   -1.2990241128    0.6290294504
      6  H        -2.1912289320   -1.6422242882    1.6292981693
      7  N        -3.6190928840   -1.4268710029    0.0319560628
      8  H        -4.4391195975   -1.8552858928    0.4486111122
      9  C        -3.5661904995   -0.8855597557   -1.2445814178
     10  H        -4.4113662448   -0.9020505505   -1.9178676309
     11  C        -2.2913561615   -0.4071032404   -1.3992074965
     12  H        -1.8447222257    0.0665227762   -2.2623702741
     13  N         2.1780133568   -0.0030806785   -0.0927261271
     14  C         3.1661847252   -0.7514928771    0.4434240124
     15  H         3.0477722582   -1.5919540026    1.1143196924
     16  N         4.3499047540   -0.2762122665    0.0089413421
     17  H         5.2602781607   -0.6487907291    0.2569517543
     18  C         4.1413613073    0.8020669618   -0.8384600981
     19  H         4.9541608304    1.3297543658   -1.3175519186
     20  C         2.7832563483    0.9734597838   -0.8986063199
     21  H         2.2177118561    1.6934733729   -1.4764989369
     22  N        -0.0051064836    1.7035925475    0.5127894269
     23  H         0.9141547891    2.0423264481    0.8304473574
     24  C        -0.5648641589    2.3948387692   -0.6333913458
     25  H         0.0298489417    2.6021767436   -1.5152357614
     26  C        -1.8491969058    2.7053886766   -0.3153374514
     27  H        -2.5979895354    3.2088431129   -0.9131849601
     28  N        -2.1552419802    2.2860720955    1.0040074750
     29  C        -1.0873737688    1.7517796181    1.5008292509
     30  H        -0.9491274650    1.3810471326    2.5108295681
   Point Group: c1    Number of degrees of freedom:    84


   Energy is  -2090.732957440

 Hessian Updated using BFGS Update

 83 Hessian modes will be used to form the next step
  Hessian Eigenvalues:
     0.001931    0.002098    0.003127    0.008780    0.010354    0.010813
     0.011748    0.013779    0.017109    0.017918    0.018755    0.018812
     0.019160    0.019871    0.019939    0.021239    0.021271    0.021646
     0.021680    0.022519    0.022550    0.023759    0.025116    0.026683
     0.049915    0.051847    0.065949    0.080898    0.097615    0.110494
     0.135072    0.143781    0.159832    0.159910    0.159986    0.159988
     0.159991    0.159992    0.159997    0.159999    0.160038    0.160116
     0.160333    0.168720    0.179034    0.190192    0.220037    0.220573
     0.228622    0.231835    0.234067    0.244002    0.247446    0.250012
     0.263772    0.328013    0.347168    0.349860    0.350033    0.350374
     0.350628    0.350981    0.351094    0.352230    0.352510    0.360889
     0.401059    0.405663    0.407689    0.422663    0.439757    0.440468
     0.442260    0.446228    0.467369    0.468411    0.498502    0.522325
     0.527315    0.528751    0.546223    0.659223    0.740544

 Minimum Search - Taking Simple RFO Step
 Searching for Lamda that Minimizes Along All modes
 Value Taken    Lamda =  -0.00097935
 Step Taken.  Stepsize is  0.280767

                             Maximum     Tolerance    Cnvgd?
         Gradient           0.006474      0.000300      NO
         Displacement       0.109761      0.001200      NO
         Energy change     -0.000655      0.000001      NO


 New Cartesian Coordinates Obtained by Inverse Iteration

 Displacement from previous Coordinates is:  0.675270
 ----------------------------------------------------------------
             Standard Nuclear Orientation (Angstroms)
    I     Atom           X                Y                Z
 ----------------------------------------------------------------
    1      Fe      0.2834306477    -0.2660476006     0.0909818860
    2      O       0.5481317505    -1.9670201648     0.7462870837
    3      O       0.4713065225    -3.1403540498     0.2307360070
    4      N      -1.5786834972    -0.6622047408    -0.2271638269
    5      C      -2.4095362043    -1.3185472349     0.6153620176
    6      H      -2.1702844393    -1.6816926620     1.6071936756
    7      N      -3.6139334438    -1.4468843810     0.0251354079
    8      H      -4.4286645524    -1.8897350577     0.4394989473
    9      C      -3.5775372363    -0.8693833945    -1.2369899697
   10      H      -4.4312615360    -0.8730430237    -1.9018518982
   11      C      -2.3056773822    -0.3777000284    -1.3926994927
   12      H      -1.8702266886     0.1211236652    -2.2484966307
   13      N       2.1888924358    -0.0060623499    -0.0907622100
   14      C       3.1706561412    -0.7891728934     0.4130098160
   15      H       3.0390767394    -1.6604084390     1.0422244680
   16      N       4.3627250130    -0.3071080608     0.0082147134
   17      H       5.2692810726    -0.6993140380     0.2443567531
   18      C       4.1689018225     0.8139650806    -0.7869581991
   19      H       4.9914909647     1.3579175392    -1.2332203443
   20      C       2.8110733933     1.0012569093    -0.8467514481
   21      H       2.2572733566     1.7551757481    -1.3926935636
   22      N       0.0027606462     1.7230043318     0.4702922323
   23      H       0.9287379296     2.0784430878     0.7471805907
   24      C      -0.6111958441     2.3725253577    -0.6738244254
   25      H      -0.0517351744     2.5725482390    -1.5810091525
   26      C      -1.8935787153     2.6629479276    -0.3216904958
   27      H      -2.6732818273     3.1364070668    -0.9068771028
   28      N      -2.1404076020     2.2788330974     1.0191584430
   29      C      -1.0424159292     1.7822619827     1.4947243731
   30      H      -0.8574576172     1.4539084476     2.5133002337
 ----------------------------------------------------------------
 Molecular Point Group                 C1    NOp =  1
 Largest Abelian Subgroup              C1    NOp =  1
 Nuclear Repulsion Energy =  1751.8367777676 hartrees
 There are       76 alpha and       72 beta electrons
 Applying Cartesian multipole field
    Component          Value
    ---------          -----
     (2,0,0)        1.00000E-12
     (0,2,0)        2.00000E-11
     (0,0,2)       -3.00000E-11
 Nucleus-field energy     =     0.0000000184 hartrees
 Requested basis set is VDZ
 There are 118 shells and 198 basis functions
 A cutoff of  1.0D-12 yielded   5849 shell pairs
 There are     17063 function pairs (     17451 Cartesian)
 Smallest overlap matrix eigenvalue = 1.57E-03
[...]
      8 H                     0.331491      -0.000252
      9 C                     0.128817       0.010484
     10 H                     0.191837      -0.000850
     11 C                     0.090882      -0.008769
     12 H                     0.160207       0.000565
     13 N                    -0.702267      -0.019822
     14 C                     0.342708       0.028670
     15 H                     0.203964      -0.001957
     16 N                    -0.419286       0.005188
     17 H                     0.334178      -0.000296
     18 C                     0.146558       0.007140
     19 H                     0.195165      -0.000840
     20 C                     0.033263      -0.006090
     21 H                     0.159293       0.000415
     22 N                    -0.728137      -0.029226
     23 H                     0.346073       0.001899
     24 C                    -0.000765      -0.010891
     25 H                     0.190182       0.000565
     26 C                     0.092476       0.032136
     27 H                     0.185207      -0.001044
     28 N                    -0.243168      -0.022996
     29 C                     0.192856       0.024181
     30 H                     0.202612      -0.000991
  --------------------------------------------------------
  Sum of atomic charges =     2.000000
  Sum of spin   charges =     4.000000

 -----------------------------------------------------------------
                    Cartesian Multipole Moments
 -----------------------------------------------------------------
    Charge (ESU x 10^10)
                 9.6064
    Dipole Moment (Debye)
         X       3.4461      Y      -0.2955      Z      -0.6501
       Tot       3.5193
    Quadrupole Moments (Debye-Ang)
        XX      -1.6571     XY      13.6453     YY     -82.6236
        XZ       4.3899     YZ      -9.9140     ZZ     -91.7169
    Octopole Moments (Debye-Ang^2)
       XXX     152.0284    XXY     -90.3609    XYY      -3.4830
       YYY     -14.5388    XXZ     -33.9387    XYZ       2.2944
       YYZ      -1.6411    XZZ     -11.6637    YZZ      -2.6350
       ZZZ      11.6327
    Hexadecapole Moments (Debye-Ang^3)
      XXXX   -1414.6269   XXXY     235.0921   XXYY    -697.9410
      XYYY     -12.7811   YYYY   -1532.1609   XXXZ      55.4594
      XXYZ    -119.6338   XYYZ      12.0047   YYYZ     -53.3400
      XXZZ    -624.8236   XYZZ      22.4609   YYZZ    -318.1788
      XZZZ      28.0768   YZZZ       7.0511   ZZZZ    -435.8323
 -----------------------------------------------------------------
 Calculating analytic gradient of the SCF energy
 Gradient of SCF Energy
            1           2           3           4           5           6
    1   0.0000138  -0.0000122  -0.0000094  -0.0000227  -0.0000010  -0.0000033
    2  -0.0000274  -0.0000277   0.0000790  -0.0001147   0.0000153   0.0000214
    3   0.0000639  -0.0000137   0.0000262   0.0000343  -0.0000272   0.0000027
            7           8           9          10          11          12
    1  -0.0000237  -0.0000010   0.0000228   0.0000120   0.0000007  -0.0000040
    2   0.0000575   0.0000188  -0.0000733  -0.0000159   0.0000809  -0.0000123
    3   0.0000158   0.0000030  -0.0000335  -0.0000000   0.0000242   0.0000020
           13          14          15          16          17          18
    1  -0.0000550  -0.0000065  -0.0000024  -0.0000095  -0.0000056   0.0000190
    2   0.0001361  -0.0000402   0.0000021  -0.0000235   0.0000013   0.0000496
    3   0.0001019  -0.0000347   0.0000146  -0.0000079   0.0000148   0.0000859
           19          20          21          22          23          24
    1   0.0000019   0.0000245   0.0000064   0.0000230  -0.0000026   0.0000070
    2  -0.0000162  -0.0001136  -0.0000285   0.0000571  -0.0000023   0.0000005
    3   0.0000144  -0.0000904  -0.0000115  -0.0000165  -0.0000171  -0.0000258
           25          26          27          28          29          30
    1   0.0000044  -0.0000224   0.0000095   0.0000017   0.0000455  -0.0000106
    2  -0.0000065  -0.0000265  -0.0000017   0.0000649  -0.0000831   0.0000263
    3  -0.0000024  -0.0000306  -0.0000269  -0.0000467  -0.0000045  -0.0000138
 Max gradient component =       1.361E-04
 RMS gradient           =       3.978E-05
 Gradient time:  CPU 832.71 s  wall 155.85 s
 Geometry Optimization Parameters
   NAtoms,    NIC,     NZ,  NCons,   NDum,   NFix, NCnnct, MaxDiis
       30     229      30       0       0       0       0       0

 Cartesian Hessian Update
 Hessian Updated using BFGS Update


** GEOMETRY OPTIMIZATION IN DELOCALIZED INTERNAL COORDINATES **
   Searching for a Minimum

   Optimization Cycle:  13

                       Coordinates (Angstroms)
     ATOM                X               Y               Z
      1  Fe        0.2928651276   -0.2557624536    0.0887788246
      2  O         0.5355960132   -1.9621827554    0.7480519882
      3  O         0.2682691859   -3.1368495406    0.2986254653
      4  N        -1.5688213092   -0.6680396274   -0.2297629137
      5  C        -2.3986315859   -1.3129991650    0.6240241593
      6  H        -2.1606486412   -1.6605752851    1.6224385952
      7  N        -3.6039564917   -1.4464712899    0.0365284242
      8  H        -4.4196480776   -1.8809796800    0.4597645623
      9  C        -3.5663069749   -0.8936330173   -1.2378234689
     10  H        -4.4199052915   -0.9069311409   -1.9038825772
     11  C        -2.2946819695   -0.4039912878   -1.4009722303
     12  H        -1.8594772255    0.0839801595   -2.2641565873
     13  N         2.1974460923    0.0122805927   -0.1152199781
     14  C         3.1721078562   -0.7946164704    0.3669863807
     15  H         3.0305407612   -1.6828066461    0.9710638374
     16  N         4.3679411152   -0.3112976906   -0.0246526886
     17  H         5.2710967600   -0.7203453271    0.1996807338
     18  C         4.1842681718    0.8355337464   -0.7873875192
     19  H         5.0110049013    1.3874259210   -1.2175992179
     20  C         2.8286072020    1.0367615944   -0.8411938200
     21  H         2.2821065217    1.8110104608   -1.3671363666
     22  N         0.0077445434    1.7439162031    0.5083244804
     23  H         0.9274384725    2.0949763197    0.8093376795
     24  C        -0.5821159563    2.3803329691   -0.6548654426
     25  H         0.0003136213    2.5963575403   -1.5447240074
     26  C        -1.8822988887    2.6384537907   -0.3409064769
     27  H        -2.6554974791    3.0886304672   -0.9534263403
     28  N        -2.1606390322    2.2493012612    0.9916594186
     29  C        -1.0631622508    1.7808538499    1.5007186751
     30  H        -0.9036944255    1.4533068625    2.5243942990
   Point Group: c1    Number of degrees of freedom:    84


   Energy is  -2090.733665007

 Hessian Updated using BFGS Update

 84 Hessian modes will be used to form the next step
  Hessian Eigenvalues:
     0.001458    0.002130    0.003466    0.003739    0.008878    0.010698
     0.011638    0.012475    0.013868    0.017371    0.018582    0.018834
     0.019291    0.020255    0.021003    0.021580    0.021668    0.022196
     0.022502    0.022556    0.022988    0.024048    0.028012    0.040012
     0.046452    0.052531    0.055097    0.065742    0.074347    0.081330
     0.105022    0.119890    0.122644    0.156053    0.159408    0.159829
     0.159905    0.159975    0.159994    0.160003    0.160029    0.160093
     0.160219    0.160780    0.164469    0.168108    0.179951    0.202749
     0.213743    0.221059    0.225183    0.231652    0.233637    0.248898
     0.267307    0.272877    0.325636    0.347127    0.350018    0.350114
     0.350378    0.350677    0.351035    0.351800    0.352390    0.353560
     0.356611    0.400672    0.406227    0.408649    0.422165    0.439775
     0.440846    0.442320    0.442631    0.467176    0.487079    0.499870
     0.522810    0.525815    0.529250    0.539158    0.653504    0.708354

 Minimum Search - Taking Simple RFO Step
 Searching for Lamda that Minimizes Along All modes
 Value Taken    Lamda =   0.00000000
 Step Taken.  Stepsize is  0.007151

                             Maximum     Tolerance    Cnvgd?
         Gradient           0.000076      0.000300     YES
         Displacement       0.002255      0.001200      NO
         Energy change     -0.000000      0.000001     YES

 Final energy is   -2090.73366500723     


 ******************************
 **  OPTIMIZATION CONVERGED  **
 ******************************

                       Coordinates (Angstroms)
     ATOM                X               Y               Z
      1  Fe        0.2928651276   -0.2557624536    0.0887788246
      2  O         0.5355960132   -1.9621827554    0.7480519882
      3  O         0.2682691859   -3.1368495406    0.2986254653
      4  N        -1.5688213092   -0.6680396274   -0.2297629137
      5  C        -2.3986315859   -1.3129991650    0.6240241593
      6  H        -2.1606486412   -1.6605752851    1.6224385952
      7  N        -3.6039564917   -1.4464712899    0.0365284242
      8  H        -4.4196480776   -1.8809796800    0.4597645623
      9  C        -3.5663069749   -0.8936330173   -1.2378234689
     10  H        -4.4199052915   -0.9069311409   -1.9038825772
     11  C        -2.2946819695   -0.4039912878   -1.4009722303
     12  H        -1.8594772255    0.0839801595   -2.2641565873
     13  N         2.1974460923    0.0122805927   -0.1152199781
     14  C         3.1721078562   -0.7946164704    0.3669863807
     15  H         3.0305407612   -1.6828066461    0.9710638374
     16  N         4.3679411152   -0.3112976906   -0.0246526886
     17  H         5.2710967600   -0.7203453271    0.1996807338
     18  C         4.1842681718    0.8355337464   -0.7873875192
     19  H         5.0110049013    1.3874259210   -1.2175992179
     20  C         2.8286072020    1.0367615944   -0.8411938200
     21  H         2.2821065217    1.8110104608   -1.3671363666
     22  N         0.0077445434    1.7439162031    0.5083244804
     23  H         0.9274384725    2.0949763197    0.8093376795
     24  C        -0.5821159563    2.3803329691   -0.6548654426
     25  H         0.0003136213    2.5963575403   -1.5447240074
     26  C        -1.8822988887    2.6384537907   -0.3409064769
     27  H        -2.6554974791    3.0886304672   -0.9534263403
     28  N        -2.1606390322    2.2493012612    0.9916594186
     29  C        -1.0631622508    1.7808538499    1.5007186751
     30  H        -0.9036944255    1.4533068625    2.5243942990

Z-matrix Print:
$molecule
2 5
Fe
O  1 1.845381
O  2 1.285803 1 133.832700
N  1 1.933214 2 89.331497 3 51.952851 0
C  4 1.354072 1 126.003516 2 44.371209 0
H  5 1.083640 4 126.807891 1 2.502898 0
N  5 1.347507 4 108.689450 1 -178.304987 0
H  7 1.016503 5 125.351325 4 -178.992610 0
C  7 1.389612 5 109.644543 4 0.750825 0
H  9 1.082793 7 122.538382 5 178.619888 0
C  9 1.372369 7 106.025654 5 -0.633703 0
H  11 1.082870 9 128.898121 7 178.684883 0
N  1 1.934138 2 92.080642 3 -111.937982 0
C  13 1.354094 1 126.061046 2 -10.514202 0
H  14 1.083436 13 126.370826 1 -2.757132 0
N  14 1.347960 13 108.749388 1 177.413983 0
H  16 1.016531 14 125.436401 13 179.798001 0
C  16 1.389504 14 109.764401 13 -0.290080 0
H  18 1.083125 16 122.525986 14 -179.339478 0
C  18 1.371570 16 105.859379 14 0.254196 0
H  20 1.083854 18 128.477846 16 -177.956066 0
N  1 2.063014 2 147.334399 3 152.340094 0
H  22 1.029412 1 105.459147 2 75.411925 0
C  22 1.451197 1 108.557320 2 -158.918186 0
H  24 1.085237 22 121.761708 1 -74.492619 0
C  24 1.362231 22 106.637438 1 107.380384 0
H  26 1.084286 24 128.982906 22 -178.707267 0
N  26 1.415855 24 110.638451 22 2.282720 0
C  28 1.297320 26 107.592883 24 0.899361 0
H  29 1.086567 28 127.062540 26 175.724068 0
$end

 
 --------------------------------------------------------------
 
                    Orbital Energies (a.u.)
 --------------------------------------------------------------
 
 Alpha MOs
 -- Occupied --
******* -30.454 -26.194 -26.188 -26.181 -19.575 -19.571 -14.709
-14.690 -14.682 -14.671 -14.664 -14.618 -10.557 -10.550 -10.539
-10.510 -10.507 -10.504 -10.497 -10.495 -10.493  -3.861  -2.603
 -2.598  -2.583  -1.509  -1.307  -1.299  -1.286  -1.164  -1.156
 -1.153  -1.109  -1.025  -1.017  -1.011  -0.895  -0.886  -0.873
 -0.870  -0.864  -0.849  -0.830  -0.823  -0.814  -0.802  -0.773
 -0.769  -0.745  -0.725  -0.716  -0.712  -0.703  -0.700  -0.697
 -0.695  -0.692  -0.688  -0.685  -0.673  -0.664  -0.638  -0.618
 -0.606  -0.602  -0.589  -0.574  -0.572  -0.556  -0.547  -0.539
 -0.517  -0.512  -0.510  -0.496
 -- Virtual --
 -0.442  -0.326  -0.306  -0.299  -0.269  -0.258  -0.252  -0.247
 -0.211  -0.201  -0.198  -0.186  -0.180  -0.177  -0.162  -0.153
 -0.145  -0.131  -0.130  -0.126  -0.119  -0.112  -0.099  -0.094
 -0.083  -0.077  -0.065  -0.056  -0.037  -0.017   0.007   0.031
  0.038   0.068   0.074   0.078   0.091   0.101   0.116   0.126
  0.139   0.164   0.181   0.196   0.197   0.218   0.220   0.224
  0.235   0.238   0.243   0.250   0.254   0.260   0.269   0.280
  0.299   0.306   0.330   0.335   0.351   0.368   0.376   0.385
  0.398   0.400   0.421   0.429   0.442   0.451   0.453   0.461
  0.471   0.488   0.499   0.505   0.515   0.519   0.523   0.533
  0.541   0.545   0.564   0.567   0.586   0.597   0.626   0.630
  0.638   0.643   0.659   0.681   0.688   0.715   0.722   0.739
  0.759   0.773   0.779   0.789   0.823   0.830   0.842   0.860
  0.877   0.901   0.919   0.940   0.968   0.986   0.997   1.032
  1.045   1.070   1.083   1.130   1.159   1.173   1.240   1.258
  1.278   1.418
 
 Beta MOs
 -- Occupied --
******* -30.402 -26.151 -26.146 -26.133 -19.555 -19.539 -14.709
-14.690 -14.682 -14.672 -14.665 -14.618 -10.556 -10.550 -10.538
-10.510 -10.507 -10.504 -10.497 -10.495 -10.492  -3.737  -2.482
 -2.475  -2.444  -1.467  -1.307  -1.299  -1.287  -1.164  -1.155
 -1.154  -1.052  -1.024  -1.017  -1.011  -0.894  -0.885  -0.873
 -0.870  -0.863  -0.848  -0.829  -0.822  -0.813  -0.766  -0.743
 -0.722  -0.719  -0.713  -0.710  -0.704  -0.700  -0.698  -0.693
 -0.692  -0.689  -0.686  -0.683  -0.664  -0.661  -0.625  -0.594
 -0.582  -0.572  -0.522  -0.516  -0.514  -0.510  -0.508  -0.496
 -- Virtual --
 -0.465  -0.451  -0.424  -0.407  -0.369  -0.320  -0.302  -0.294
 -0.268  -0.255  -0.245  -0.243  -0.204  -0.199  -0.188  -0.180
 -0.173  -0.161  -0.154  -0.151  -0.142  -0.129  -0.127  -0.125
 -0.117  -0.111  -0.094  -0.090  -0.082  -0.075  -0.061  -0.044
 -0.036  -0.014   0.012   0.034   0.041   0.069   0.075   0.079
  0.093   0.103   0.118   0.128   0.143   0.166   0.186   0.198
  0.199   0.219   0.223   0.227   0.237   0.239   0.244   0.252
  0.257   0.263   0.270   0.282   0.301   0.309   0.331   0.338
  0.358   0.372   0.379   0.386   0.401   0.407   0.427   0.432
  0.444   0.454   0.455   0.465   0.472   0.497   0.507   0.511
  0.516   0.523   0.531   0.539   0.548   0.548   0.570   0.576
  0.589   0.620   0.636   0.642   0.651   0.663   0.692   0.700
  0.713   0.732   0.749   0.754   0.770   0.797   0.801   0.815
  0.841   0.848   0.861   0.873   0.904   0.909   0.939   0.949
  0.982   0.998   1.022   1.036   1.052   1.080   1.099   1.162
  1.189   1.196   1.262   1.275   1.298   1.435
 --------------------------------------------------------------
 
          Ground-State Mulliken Net Atomic Charges

     Atom                 Charge (a.u.)    Spin (a.u.)
  --------------------------------------------------------
      1 Fe                    1.323242       2.472307
      2 O                    -0.258997       0.560458
      3 O                     0.100975       0.958697
      4 N                    -0.701967      -0.019515
      5 C                     0.325447       0.020254
      6 H                     0.193870      -0.001560
      7 N                    -0.416717       0.002140
      8 H                     0.331491      -0.000252
      9 C                     0.128817       0.010484
     10 H                     0.191837      -0.000850
     11 C                     0.090882      -0.008769
     12 H                     0.160207       0.000565
     13 N                    -0.702267      -0.019822
     14 C                     0.342708       0.028670
     15 H                     0.203964      -0.001957
     16 N                    -0.419286       0.005188
     17 H                     0.334178      -0.000296
     18 C                     0.146558       0.007140
     19 H                     0.195165      -0.000840
     20 C                     0.033263      -0.006090
     21 H                     0.159293       0.000415
     22 N                    -0.728137      -0.029226
     23 H                     0.346073       0.001899
     24 C                    -0.000765      -0.010891
     25 H                     0.190182       0.000565
     26 C                     0.092476       0.032136
     27 H                     0.185207      -0.001044
     28 N                    -0.243168      -0.022996
     29 C                     0.192856       0.024181
     30 H                     0.202612      -0.000991
  --------------------------------------------------------
  Sum of atomic charges =     2.000000
  Sum of spin   charges =     4.000000

 -----------------------------------------------------------------
                    Cartesian Multipole Moments
 -----------------------------------------------------------------
    Charge (ESU x 10^10)
                 9.6064
    Dipole Moment (Debye)
         X       3.4461      Y      -0.2955      Z      -0.6501
       Tot       3.5193
    Quadrupole Moments (Debye-Ang)
        XX      -1.6571     XY      13.6453     YY     -82.6236
        XZ       4.3899     YZ      -9.9140     ZZ     -91.7169
    Octopole Moments (Debye-Ang^2)
       XXX     152.0284    XXY     -90.3609    XYY      -3.4830
       YYY     -14.5388    XXZ     -33.9387    XYZ       2.2944
       YYZ      -1.6411    XZZ     -11.6637    YZZ      -2.6350
       ZZZ      11.6327
    Hexadecapole Moments (Debye-Ang^3)
      XXXX   -1414.6269   XXXY     235.0921   XXYY    -697.9410
      XYYY     -12.7811   YYYY   -1532.1609   XXXZ      55.4594
      XXYZ    -119.6338   XYYZ      12.0047   YYYZ     -53.3400
      XXZZ    -624.8236   XYZZ      22.4609   YYZZ    -318.1788
      XZZZ      28.0768   YZZZ       7.0511   ZZZZ    -435.8323
 -----------------------------------------------------------------
Archival summary:
1\1\cub-0-29.local\OPT\ProcedureUnspecified\BasisUnspecified\e126912(2+,5)\c295_lal\WedNov2117:38:392018WedNov2117:38:392018\0\\#,OPT,ProcedureUnspecified,BasisUnspecified,\\2,5\Fe\O,1,1.84538\O,2,1.2858,1,133.833\N,1,1.93321,2,89.3315,3,51.9529,0\C,4,1.35407,1,126.004,2,44.3712,0\H,5,1.08364,4,126.808,1,2.5029,0\N,5,1.34751,4,108.689,1,-178.305,0\H,7,1.0165,5,125.351,4,-178.993,0\C,7,1.38961,5,109.645,4,0.750825,0\H,9,1.08279,7,122.538,5,178.62,0\C,9,1.37237,7,106.026,5,-0.633703,0\H,11,1.08287,9,128.898,7,178.685,0\N,1,1.93414,2,92.0806,3,-111.938,0\C,13,1.35409,1,126.061,2,-10.5142,0\H,14,1.08344,13,126.371,1,-2.75713,0\N,14,1.34796,13,108.749,1,177.414,0\H,16,1.01653,14,125.436,13,179.798,0\C,16,1.3895,14,109.764,13,-0.29008,0\H,18,1.08313,16,122.526,14,-179.339,0\C,18,1.37157,16,105.859,14,0.254196,0\H,20,1.08385,18,128.478,16,-177.956,0\N,1,2.06301,2,147.334,3,152.34,0\H,22,1.02941,1,105.459,2,75.4119,0\C,22,1.4512,1,108.557,2,-158.918,0\H,24,1.08524,22,121.762,1,-74.4926,0\C,24,1.36223,22,106.637,1,107.38,0\H,26,1.08429,24,128.983,22,-178.707,0\N,26,1.41585,24,110.638,22,2.28272,0\C,28,1.29732,26,107.593,24,0.899361,0\H,29,1.08657,28,127.063,26,175.724,0\\\@

 Total job time:  24384.80s(wall), 189224.94s(cpu) 
 Wed Nov 21 17:38:39 2018

        *************************************************************
        *                                                           *
        *  Thank you very much for using Q-Chem.  Have a nice day.  *
        *                                                           *
        *************************************************************


