
Running Job 1 of 1 sys_2_car_1_opt_vdz_mgga.in
qchem sys_2_car_1_opt_vdz_mgga.in_24010.0 /scr/c295_lal/157312/qchem24010/ 1
/usr/software/qchem_511/exe/qcprog.exe_s sys_2_car_1_opt_vdz_mgga.in_24010.0 /scr/c295_lal/157312/qchem24010/
Check license passed

                  Welcome to Q-Chem
     A Quantum Leap Into The Future Of Chemistry


 Q-Chem 5.1, Q-Chem, Inc., Pleasanton, CA (2018)

 Yihan Shao,  Zhengting Gan,  E. Epifanovsky,  A. T. B. Gilbert,  M. Wormit,  
 J. Kussmann,  A. W. Lange,  A. Behn,  Jia Deng,  Xintian Feng,  D. Ghosh,  
 M. Goldey,  P. R. Horn,  L. D. Jacobson,  I. Kaliman,  T. Kus,  A. Landau,  
 Jie Liu,  E. I. Proynov,  R. M. Richard,  R. P. Steele,  E. J. Sundstrom,  
 H. L. Woodcock III,  P. M. Zimmerman,  D. Zuev,  B. Albrecht,  E. Alguire,  
 S. A. Baeppler,  D. Barton,  Z. Benda,  Y. A. Bernard,  E. J. Berquist,  
 K. B. Bravaya,  H. Burton,  D. Casanova,  Chun-Min Chang,  Yunqing Chen,  
 A. Chien,  K. D. Closser,  M. P. Coons,  S. Coriani,  S. Dasgupta,  
 A. L. Dempwolff,  M. Diedenhofen,  Hainam Do,  R. G. Edgar,  Po-Tung Fang,  
 S. Faraji,  S. Fatehi,  Qingguo Feng,  K. D. Fenk,  J. Fosso-Tande,  
 Qinghui Ge,  A. Ghysels,  G. Gidofalvi,  J. Gomes,  J. Gonthier,  A. Gunina,  
 D. Hait,  M. W. D. Hanson-Heine,  P. H. P. Harbach,  A. W. Hauser,  
 J. E. Herr,  E. G. Hohenstein,  Z. C. Holden,  Kerwin Hui,  B. C. Huynh,  
 T.-C. Jagau,  Hyunjun Ji,  B. Kaduk,  K. Khistyaev,  Jaehoon Kim,  
 P. Klunzinger,  K. Koh,  D. Kosenkov,  L. Koulias,  T. Kowalczyk,  
 C. M. Krauter,  A. Kunitsa,  Ka Un Lao,  A. Laurent,  K. V. Lawler,  
 Joonho Lee,  D. Lefrancois,  S. Lehtola,  D. S. Levine,  Yi-Pei Li,  
 You-Sheng Lin,  Fenglai Liu,  E. Livshits,  A. Luenser,  P. Manohar,  
 E. Mansoor,  S. F. Manzer,  Shan-Ping Mao,  Yuezhi Mao,  N. Mardirossian,  
 A. V. Marenich,  T. Markovich,  L. A. Martinez-Martinez,  S. A. Maurer,  
 N. J. Mayhall,  S. C. McKenzie,  J.-M. Mewes,  A. F. Morrison,  
 J. W. Mullinax,  K. Nanda,  T. S. Nguyen-Beck,  R. Olivares-Amaya,  
 J. A. Parkhill,  T. M. Perrine,  F. Plasser,  P. Pokhilko,  S. Prager,  
 A. Prociuk,  E. Ramos,  D. R. Rehn,  F. Rob,  M. Schneider,  N. Sergueev,  
 S. M. Sharada,  S. Sharma,  D. W. Small,  T. Stauch,  T. Stein,  
 Yu-Chuan Su,  A. J. W. Thom,  A. Tkatchenko,  T. Tsuchimochi,  N. M. Tubman,  
 L. Vogt,  M. L. Vidal,  O. Vydrov,  M. A. Watson,  J. Wenzel,  
 M. de Wergifosse,  T. A. Wesolowski,  A. White,  J. Witte,  A. Yamada,  
 Jun Yang,  K. Yao,  S. Yeganeh,  S. R. Yost,  Zhi-Qiang You,  A. Zech,  
 Igor Ying Zhang,  Xing Zhang,  Yan Zhao,  Ying Zhu,  B. R. Brooks,  
 G. K. L. Chan,  C. J. Cramer,  M. S. Gordon,  W. J. Hehre,  A. Klamt,  
 M. W. Schmidt,  C. D. Sherrill,  D. G. Truhlar,  A. Aspuru-Guzik,  R. Baer,  
 A. T. Bell,  N. A. Besley,  Jeng-Da Chai,  A. E. DePrince, III,  
 R. A. DiStasio Jr.,  A. Dreuw,  B. D. Dunietz,  T. R. Furlani,  
 Chao-Ping Hsu,  Yousung Jung,  Jing Kong,  D. S. Lambrecht,  WanZhen Liang,  
 C. Ochsenfeld,  V. A. Rassolov,  L. V. Slipchenko,  J. E. Subotnik,  
 T. Van Voorhis,  J. M. Herbert,  A. I. Krylov,  P. M. W. Gill,  M. Head-Gordon

 Contributors to earlier versions of Q-Chem not listed above: 
 R. D. Adamson,  B. Austin,  J. Baker,  G. J. O. Beran,  K. Brandhorst,  
 S. T. Brown,  E. F. C. Byrd,  A. K. Chakraborty,  C.-L. Cheng,  
 Siu Hung Chien,  D. M. Chipman,  D. L. Crittenden,  H. Dachsel,  
 R. J. Doerksen,  A. D. Dutoi,  L. Fusti-Molnar,  W. A. Goddard III,  
 A. Golubeva-Zadorozhnaya,  S. R. Gwaltney,  G. Hawkins,  A. Heyden,  
 S. Hirata,  G. Kedziora,  F. J. Keil,  C. Kelley,  Jihan Kim,  R. A. King,  
 R. Z. Khaliullin,  P. P. Korambath,  W. Kurlancheek,  A. M. Lee,  M. S. Lee,  
 S. V. Levchenko,  Ching Yeh Lin,  D. Liotard,  R. C. Lochan,  I. Lotan,  
 P. E. Maslen,  N. Nair,  D. P. O'Neill,  D. Neuhauser,  E. Neuscamman,  
 C. M. Oana,  R. Olson,  B. Peters,  R. Peverati,  P. A. Pieniazek,  
 Y. M. Rhee,  J. Ritchie,  M. A. Rohrdanz,  E. Rosta,  N. J. Russ,  
 H. F. Schaefer III,  N. E. Schultz,  N. Shenvi,  A. C. Simmonett,  A. Sodt,  
 D. Stuck,  K. S. Thanthiriwatte,  V. Vanovschi,  Tao Wang,  A. Warshel,  
 C. F. Williams,  Q. Wu,  X. Xu,  W. Zhang

 Please cite Q-Chem as follows:
 Y. Shao et al., Mol. Phys. 113, 184-215 (2015)
 DOI: 10.1080/00268976.2014.952696

 Q-Chem 5.1.1 for Intel X86 EM64T Linux

 Parts of Q-Chem use Armadillo 8.300.2 (Tropical Shenanigans).
 http://arma.sourceforge.net/

 Q-Chem begins on Tue Nov 27 22:43:30 2018  

Host: cub-0-18.local
0

     Scratch files written to /scr/c295_lal/157312/qchem24010//
 Aug318 |scratch|qcdevops|jenkins|workspace|build_RNUM -1
Processing $rem in /usr/software/qchem_511/config/preferences.
 MEM_TOTAL  2000 
Input Ideriv = 2
Curr. Ideriv = -1
Max.  Ideriv = 2
Input Ideriv = 1
Curr. Ideriv = 2
Max.  Ideriv = 1

Checking the input file for inconsistencies... 	...done.

--------------------------------------------------------------
User input:
--------------------------------------------------------------
$molecule
2 5
Fe         0.29287       -0.25576        0.08878
O          0.53560       -1.96218        0.74805
O          0.26827       -3.13685        0.29863
H          3.96830       -6.67179        3.20560
H          4.15730       -8.16639        2.23800
C          3.48220       -7.31939        2.45720
H          2.56990       -7.73289        2.91980
H          5.17140       -5.03699        2.37690
H          5.21180       -6.77849        0.51460
C          4.97570       -4.76399        1.32440
C          3.15730       -6.54449        1.16130
C          4.45610       -5.97269        0.55590
H          5.93810       -4.41959        0.90950
H         -1.39170       -7.06339        3.32950
H          0.71660       -6.87129        2.20370
H          3.32860       -8.27639       -0.15100
C          2.56600       -7.52819        0.13100
C          2.14990       -5.41689        1.47350
H          4.20690       -2.83489        1.97190
H          1.69090       -8.07139        0.52290
C          3.93890       -3.64559        1.26950
C          0.78580       -5.89079        1.71790
C         -1.83610       -7.13449        2.32120
C          2.52620       -4.10339        1.55790
H         -1.29540       -7.94109        1.79440
H          2.12690       -2.21559        2.51500
H         -2.87750       -7.45779        2.44150
H          4.25590       -5.67289       -0.49120
C          1.59060       -2.98399        1.93060
H          0.72840       -3.32889        2.52020
C         -0.38370       -5.29869        1.34140
H          2.25100       -6.99659       -0.78320
H          3.95920       -3.17079        0.26440
C         -1.71460       -5.82889        1.58310
H          1.18790       -2.46639        1.03780
H         -0.34960       -4.35909        0.78230
H         -4.45320       -6.39459        1.74970
C         -2.79800       -5.11429        1.13270
C         -4.19550       -5.45039        1.25910
H         -2.58780       -4.16949        0.61540
C         -5.20320       -4.66749        0.80260
H         -6.25120       -4.95249        0.91330
H         -5.00120       -3.71209        0.30670
$end

$rem
BASIS = VDZ
METHOD  = B97M-rV
JOBTYPE = OPT
MAX_SCF_CYCLES = 500
SCF_ALGORITHM = DIIS_GDM
$end
--------------------------------------------------------------
 ----------------------------------------------------------------
             Standard Nuclear Orientation (Angstroms)
    I     Atom           X                Y                Z
 ----------------------------------------------------------------
    1      Fe     -1.6790327831     3.9120688508    -0.1759868447
    2      O      -0.9206306281     2.2590553711     0.1367376498
    3      O      -0.8632566873     1.1641712257    -0.5349990644
    4      H       3.8492887650    -1.6152897945     1.6336431798
    5      H       4.4067018283    -2.7791028231     0.3924220750
    6      C       3.5297011320    -2.2237013646     0.7713899478
    7      H       2.8013419408    -2.9652928386     1.1412646216
    8      H       4.4848333209     0.4253209936     1.1450174858
    9      H       4.9222834430    -0.8449729293    -1.0223787493
   10      C       4.1618338141     0.8222139935     0.1658693840
   11      C       2.9256577000    -1.3482037990    -0.3484414568
   12      C       3.9703412248    -0.3182744685    -0.8261733349
   13      H       4.9605595341     1.5046909266    -0.1706266636
   14      H      -1.1570587479    -3.5733379693     1.6625169665
   15      H       0.7424444179    -2.5646702482     0.6024537176
   16      H       3.5155275472    -2.6747730325    -1.9742397905
   17      C       2.5866677752    -2.2494168884    -1.5533150055
   18      C       1.6553325138    -0.6444177581     0.1757383692
   19      H       2.9076625974     2.2841005702     1.1766506146
   20      H       1.9272934054    -3.0884183287    -1.2780807716
   21      C       2.8460127812     1.5778968663     0.3281814762
   22      C       0.5003815058    -1.5336855004     0.3184703969
   23      C      -1.6165987268    -3.5801153837     0.6585286526
   24      C       1.6423608321     0.6812257092     0.5170716860
   25      H      -0.8965090636    -4.0790282712    -0.0145501671
   26      H       0.7702883683     2.1541600538     1.8244445380
   27      H      -2.5130030960    -4.2104442391     0.7100425437
   28      H       3.6356323287     0.1014122890    -1.7947865035
   29      C       0.4463525212     1.3869307661     1.0991829321
   30      H      -0.2468811717     0.7003953207     1.6071879903
   31      C      -0.8086528174    -1.2496953373     0.0618702451
   32      H       2.0828226939    -1.6710016432    -2.3465117894
   33      H       2.6741687998     2.2182351243    -0.5642924458
   34      C      -1.9158255507    -2.1815296707     0.1910176566
   35      H      -0.1361676770     1.9225423137     0.3239672339
   36      H      -1.0765271658    -0.2535204623    -0.3021115288
   37      H      -4.3630412284    -3.5441990722     0.2353971434
   38      C      -3.1817550409    -1.7435934937    -0.1137827872
   39      C      -4.4146778740    -2.4912157135    -0.0598501990
   40      H      -3.2804435626    -0.6989120267    -0.4352350826
   41      C      -5.6281755159    -1.9659567017    -0.3570208464
   42      H      -6.5424200978    -2.5604997116    -0.3074331076
   43      H      -5.7365839440    -0.9177646316    -0.6554349325
 ----------------------------------------------------------------
 Molecular Point Group                 C1    NOp =  1
 Largest Abelian Subgroup              C1    NOp =  1
 Nuclear Repulsion Energy =  1727.4958292643 hartrees
 There are       82 alpha and       78 beta electrons
 Requested basis set is VDZ
 There are 147 shells and 231 basis functions

 Total QAlloc Memory Limit   2000 MB
 Mega-Array Size       188 MB
 MEM_STATIC part       192 MB
 A cutoff of  1.0D-12 yielded   8640 shell pairs
 There are     21450 function pairs (     21739 Cartesian)
 
 -------------------------------------------------------
 OpenMP Integral Computing Module                       
 Release: version 1.0, May 2013, Q-Chem Inc. Pittsburgh 
 -------------------------------------------------------
 Integral Job Info:
 Integral job number is                      11
 Integral operator is                         1
 short-range coefficients                     0
 long-range coefficients              100000000
 Omega coefficients                           0
 if combine SR and LR in K                    0
 Integral screening is                        0
 Integral computing path is                   2
 max size of driver memory is            800000
 size of driver memory is                593474
 size of scratch memory is             29634545
 max col of scratch BK array               1296
 max len of scratch array in speh3          155
 max len of scratch index in speh4           18
 max int batch size is                      520
 min int batch size is                       52
 fixed nKL is                                45
 max L of basis functions is                  2
 order of int derivative is                   0
 number of shells is                        147
 number of basis is                         233
 number of cartesian basis is               233
 number of contracted shell pairs          8640
 number of primitive shell pairs          24362
 maxK2 (contraction) of shell pair           36
 max number of K2 of shell pair               1
 max number of CS2 of shell pair           2070
 max number of PS2 of shell pair           5220
 mem total for path MDJ                  588968
 -------------------------------------------------------
 Smallest overlap matrix eigenvalue = 8.85E-04

 Scale SEOQF with 1.000000e-02/1.000000e-01/1.000000e-01

 Standard Electronic Orientation quadrupole field applied
 Nucleus-field energy     =     0.0000000608 hartrees
 Guess from superposition of atomic densities
 Warning:  Energy on first SCF cycle will be non-variational
 SAD guess density has 162.000000 electrons

 -----------------------------------------------------------------------
  General SCF calculation program by
  Eric Jon Sundstrom, Paul Horn, Yuezhi Mao, Dmitri Zuev, Alec White,
  David Stuck, Shaama M.S., Shane Yost, Joonho Lee, David Small,
  Daniel Levine, Susi Lehtola, Hugh Burton, Evgeny Epifanovsky
 -----------------------------------------------------------------------
 Exchange:  B97M-V      Correlation:  B97M-V
 Using SG-2 standard quadrature grid
 Nonlocal Correlation:  rVV10 with C = 0.0100 and b = 6.00 and scale = 1.00000
 Grid used for NLC:  SG-1 standard quadrature
 using 12 threads for integral computing
 -------------------------------------------------------
 OpenMP Integral computing Module                
 Release: version 1.0, May 2013, Q-Chem Inc. Pittsburgh 
 -------------------------------------------------------
 -------------------------------------------------------
 OpenMP BLAS3 based DFT computing Module                
 Release: version 1.0, May 2013, Q-Chem Inc. Pittsburgh 
 -------------------------------------------------------
 -------------------------------------------------------
 OpenMP BLAS3 based DFT computing Module                
 Release: version 1.0, May 2013, Q-Chem Inc. Pittsburgh 
 -------------------------------------------------------
 -------------------------------------------------------
 OpenMP BLAS3 based DFT computing Module                
 Release: version 1.0, May 2013, Q-Chem Inc. Pittsburgh 
 -------------------------------------------------------
 Nonlocal correlation = 0.581844523941
 A unrestricted SCF calculation will be
 performed using DIIS, GDM
 SCF converges when RMS gradient is below 1.0e-08
 ---------------------------------------
  Cycle       Energy         DIIS error
 ---------------------------------------
 Nonlocal correlation = 6.060934215473e-01
    1   -2040.1187586728      3.15e-02  
    2   -2033.9466953091      7.22e-03  Done DIIS. Switching to GDM
 ---------------------------------------
  Cycle       Energy        RMS Gradient
 ---------------------------------------
 Nonlocal correlation = 6.046306958393e-01
    1   -2033.9466953091      6.18e-01   Descent step
 Nonlocal correlation = 6.041013240364e-01
    2   -2034.6947045572      1.10e+00   Descent step
 Nonlocal correlation = 6.036105280299e-01
    3   -2035.2074173970      5.09e-01   Descent step
 Nonlocal correlation = 6.024809801845e-01
    4   -2035.5421193558      2.18e-01   Descent step
 Nonlocal correlation = 6.019995032728e-01
    5   -2035.6105965442      3.52e-01   Descent step
 Nonlocal correlation = 6.015602634310e-01
    6   -2035.7251369642      2.98e-01   Descent step
 Nonlocal correlation = 6.018253217699e-01
    7   -2035.6379687680      5.69e-01  Line search: overstep
 Nonlocal correlation = 6.017564365023e-01
    8   -2035.7842569207      2.13e-01   Descent step
 Nonlocal correlation = 6.017974749178e-01
    9   -2035.7643170594      4.42e-01  Line search: overstep
 Nonlocal correlation = 6.012093197232e-01
   10   -2035.8266144248      2.34e-01   Descent step
 Nonlocal correlation = 6.016362280921e-01
   11   -2035.6986765029      3.47e-01  Line search: overstep
 Nonlocal correlation = 6.016260691370e-01
   12   -2035.8489426349      2.16e-01   Descent step
 Nonlocal correlation = 6.016457107362e-01
   13   -2035.7034317726      4.33e-01  Line search: overstep
 Nonlocal correlation = 6.011476332205e-01
   14   -2035.8647490698      1.26e-01   Descent step
 Nonlocal correlation = 6.015434222786e-01
   15   -2035.7366073053      3.88e-01  Line search: overstep
 Nonlocal correlation = 6.013410239883e-01
   16   -2035.8758123966      2.34e-01   Normal BFGS step
 Nonlocal correlation = 6.016556300132e-01
   17   -2035.8824174946      3.25e-01   Normal BFGS step
 Nonlocal correlation = 6.012158145661e-01
   18   -2035.8987431503      7.08e-02   Normal BFGS step
 Nonlocal correlation = 6.014543468091e-01
   19   -2035.8972731235      8.09e-02  Line search: overstep
 Nonlocal correlation = 6.014504165439e-01
   20   -2035.9024327543      6.69e-02   Normal BFGS step
 Nonlocal correlation = 6.014620978108e-01
   21   -2035.9052901212      9.15e-02   Normal BFGS step
 Nonlocal correlation = 6.016564166612e-01
   22   -2035.9072719575      1.07e-01   Normal BFGS step
 Nonlocal correlation = 6.013589357483e-01
   23   -2035.9101495297      2.99e-02   Normal BFGS step
 Nonlocal correlation = 6.016057915526e-01
   24   -2035.9122504157      3.44e-02   Normal BFGS step
 Nonlocal correlation = 6.015821294067e-01
   25   -2035.9138882900      3.70e-02   Normal BFGS step
 Nonlocal correlation = 6.015087641070e-01
   26   -2035.9142936486      1.29e-02   Normal BFGS step
 Nonlocal correlation = 6.015630634072e-01
   27   -2035.9149544286      2.52e-02   Normal BFGS step
 Nonlocal correlation = 6.015592260720e-01
   28   -2035.9150206481      1.25e-02   Normal BFGS step
 Nonlocal correlation = 6.015414763729e-01
   29   -2035.9153576127      4.31e-03   Normal BFGS step
 Nonlocal correlation = 6.015569240266e-01
   30   -2035.9154751815      2.68e-03   Normal BFGS step
 Nonlocal correlation = 6.015460315563e-01
   31   -2035.9155343314      6.36e-03   Normal BFGS step
 Nonlocal correlation = 6.015566443149e-01
   32   -2035.9155633832      2.43e-03   Normal BFGS step
 Nonlocal correlation = 6.015568137332e-01
   33   -2035.9155753191      3.97e-03   Normal BFGS step
 Nonlocal correlation = 6.015512678097e-01
   34   -2035.9155852065      7.46e-04   Normal BFGS step
 Nonlocal correlation = 6.015570023031e-01
   35   -2035.9155927617      1.86e-03   Normal BFGS step
 Nonlocal correlation = 6.015559837348e-01
   36   -2035.9155981983      6.72e-04   Normal BFGS step
 Nonlocal correlation = 6.015560090594e-01
   37   -2035.9155988000      1.54e-03   Normal BFGS step
 Nonlocal correlation = 6.015591750591e-01
   38   -2035.9155993427      1.04e-03   Normal BFGS step
 Nonlocal correlation = 6.015545510896e-01
   39   -2035.9156000301      3.76e-04   Normal BFGS step
 Nonlocal correlation = 6.015562494422e-01
   40   -2035.9156000432      3.56e-04   Normal BFGS step
 Nonlocal correlation = 6.015590049843e-01
   41   -2035.9156003496      4.18e-04   Normal BFGS step
 Nonlocal correlation = 6.015574117749e-01
   42   -2035.9156002258      5.59e-04  Line search: overstep
 Nonlocal correlation = 6.015567607009e-01
   43   -2035.9156004903      8.28e-05   Normal BFGS step
 Nonlocal correlation = 6.015566255698e-01
   44   -2035.9156005272      8.12e-05   Normal BFGS step
 Nonlocal correlation = 6.015568107275e-01
   45   -2035.9156005628      1.22e-04   Normal BFGS step
 Nonlocal correlation = 6.015570840186e-01
   46   -2035.9156005650      3.15e-04   Normal BFGS step
 Nonlocal correlation = 6.015567204243e-01
   47   -2035.9156006074      6.00e-05   Normal BFGS step
 Nonlocal correlation = 6.015567980216e-01
   48   -2035.9156006225      6.37e-05   Normal BFGS step
 Nonlocal correlation = 6.015567763631e-01
   49   -2035.9156006580      7.95e-05   Normal BFGS step
 Nonlocal correlation = 6.015567360598e-01
   50   -2035.9156006800      4.71e-05   Normal BFGS step
 Nonlocal correlation = 6.015569112307e-01
   51   -2035.9156006901      6.50e-05   Normal BFGS step
 Nonlocal correlation = 6.015566390642e-01
   52   -2035.9156007063      6.16e-05   Normal BFGS step
 Nonlocal correlation = 6.015564659913e-01
   53   -2035.9156007267      4.63e-05   Normal BFGS step
 Nonlocal correlation = 6.015563764444e-01
   54   -2035.9156007657      5.49e-05   Normal BFGS step
 Nonlocal correlation = 6.015569091351e-01
   55   -2035.9156008231      3.56e-04   Normal BFGS step
 Nonlocal correlation = 6.015562957287e-01
   56   -2035.9156008239      3.12e-04   Normal BFGS step
 Nonlocal correlation = 6.015562371664e-01
   57   -2035.9156008773      1.56e-04   Normal BFGS step
 Nonlocal correlation = 6.015562693392e-01
   58   -2035.9156008661      1.85e-04  Line search: overstep
 Nonlocal correlation = 6.015569317289e-01
   59   -2035.9156009000      4.39e-05   Normal BFGS step
 Nonlocal correlation = 6.015568205640e-01
   60   -2035.9156009004      1.32e-04   Normal BFGS step
 Nonlocal correlation = 6.015565460740e-01
   61   -2035.9156009177      2.26e-05   Normal BFGS step
 Nonlocal correlation = 6.015565740615e-01
   62   -2035.9156009188      6.10e-05   Normal BFGS step
 Nonlocal correlation = 6.015568189283e-01
   63   -2035.9156009212      4.29e-05   Normal BFGS step
 Nonlocal correlation = 6.015567720432e-01
   64   -2035.9156009224      2.34e-05   Normal BFGS step
 Nonlocal correlation = 6.015566409962e-01
   65   -2035.9156009243      1.07e-05   Normal BFGS step
 Nonlocal correlation = 6.015566672495e-01
   66   -2035.9156009246      2.43e-05   Normal BFGS step
 Nonlocal correlation = 6.015567934715e-01
   67   -2035.9156009253      3.84e-05   Normal BFGS step
 Nonlocal correlation = 6.015567694176e-01
   68   -2035.9156009256      2.91e-05   Normal BFGS step
 Nonlocal correlation = 6.015567170146e-01
   69   -2035.9156009262      5.20e-06   Normal BFGS step
 Nonlocal correlation = 6.015567348609e-01
   70   -2035.9156009263      5.68e-06   Normal BFGS step
 Nonlocal correlation = 6.015567478207e-01
   71   -2035.9156009264      1.46e-06   Normal BFGS step
 Nonlocal correlation = 6.015567436857e-01
   72   -2035.9156009265      1.57e-06   Normal BFGS step
 Nonlocal correlation = 6.015567391518e-01
   73   -2035.9156009265      1.15e-06   Normal BFGS step
 Nonlocal correlation = 6.015567393263e-01
   74   -2035.9156009265      1.04e-06   Normal BFGS step
 Nonlocal correlation = 6.015567467641e-01
   75   -2035.9156009265      9.77e-07   Normal BFGS step
 Nonlocal correlation = 6.015567417425e-01
   76   -2035.9156009265      2.41e-06   Normal BFGS step
 Nonlocal correlation = 6.015567395799e-01
   77   -2035.9156009265      7.03e-07   Normal BFGS step
 Nonlocal correlation = 6.015567415220e-01
   78   -2035.9156009265      5.32e-07   Normal BFGS step
 Nonlocal correlation = 6.015567411487e-01
   79   -2035.9156009265      2.89e-07   Normal BFGS step
 Nonlocal correlation = 6.015567417403e-01
   80   -2035.9156009265      6.93e-07   Normal BFGS step
 Nonlocal correlation = 6.015567410333e-01
   81   -2035.9156009265      1.04e-07   Normal BFGS step
 Nonlocal correlation = 6.015567415511e-01
   82   -2035.9156009265      2.51e-07   Normal BFGS step
 Nonlocal correlation = 6.015567414691e-01
   83   -2035.9156009265      9.10e-08   Normal BFGS step
 Nonlocal correlation = 6.015567414916e-01
   84   -2035.9156009265      2.02e-07   Normal BFGS step
 Nonlocal correlation = 6.015567414973e-01
   85   -2035.9156009265      9.52e-08   Normal BFGS step
  /scratch/qcdevops/jenkins/workspace/build_qchem_linux_distrib/tags/qc511/qchem/libgscf/libgscf/opt/gdm.C::WARNING energy changes are now smaller than effective accuracy.
  /scratch/qcdevops/jenkins/workspace/build_qchem_linux_distrib/tags/qc511/qchem/libgscf/libgscf/opt/gdm.C::        calculation will continue, but THRESH should be increased
  /scratch/qcdevops/jenkins/workspace/build_qchem_linux_distrib/tags/qc511/qchem/libgscf/libgscf/opt/gdm.C::        or SCF_CONVERGENCE decreased. 
  /scratch/qcdevops/jenkins/workspace/build_qchem_linux_distrib/tags/qc511/qchem/libgscf/libgscf/opt/gdm.C::        effective_thresh = 5.76e-09
 Nonlocal correlation = 6.015567415223e-01
   86   -2035.9156009265      3.18e-07   Normal BFGS step
 Nonlocal correlation = 6.015567415096e-01
   87   -2035.9156009265      1.65e-08   Normal BFGS step
 Nonlocal correlation = 6.015567415127e-01
   88   -2035.9156009265      1.86e-08   Normal BFGS step
  /scratch/qcdevops/jenkins/workspace/build_qchem_linux_distrib/tags/qc511/qchem/libgscf/libgscf/opt/gdm.C::WARNING energy changes are now smaller than effective accuracy.
  /scratch/qcdevops/jenkins/workspace/build_qchem_linux_distrib/tags/qc511/qchem/libgscf/libgscf/opt/gdm.C::        calculation will continue, but THRESH should be increased
  /scratch/qcdevops/jenkins/workspace/build_qchem_linux_distrib/tags/qc511/qchem/libgscf/libgscf/opt/gdm.C::        or SCF_CONVERGENCE decreased. 
  /scratch/qcdevops/jenkins/workspace/build_qchem_linux_distrib/tags/qc511/qchem/libgscf/libgscf/opt/gdm.C::        effective_thresh = 5.76e-09
 Nonlocal correlation = 6.015567415537e-01
   89   -2035.9156009265      6.55e-09  Convergence criterion met
 ---------------------------------------
 SCF time:   CPU 62883.18s  wall 5260.00s 
<S^2> =          6.378250200
 SCF   energy in the final basis set =    -2035.9156009265
 Total energy in the final basis set =    -2035.9156009265
 
 --------------------------------------------------------------
 
                    Orbital Energies (a.u.)
 --------------------------------------------------------------
 
 Alpha MOs
 -- Occupied --
******* -30.372 -26.113 -26.103 -26.098 -19.539 -19.437 -10.476
-10.475 -10.466 -10.459 -10.456 -10.445 -10.441 -10.439 -10.438
-10.429 -10.412 -10.400 -10.383 -10.380 -10.373 -10.372  -3.828
 -2.584  -2.559  -2.553  -1.556  -1.117  -1.085  -1.057  -1.012
 -1.010  -0.977  -0.964  -0.934  -0.899  -0.877  -0.857  -0.856
 -0.836  -0.796  -0.793  -0.776  -0.770  -0.749  -0.732  -0.706
 -0.692  -0.677  -0.668  -0.657  -0.650  -0.632  -0.627  -0.619
 -0.616  -0.607  -0.600  -0.599  -0.589  -0.583  -0.581  -0.578
 -0.575  -0.565  -0.563  -0.559  -0.551  -0.546  -0.543  -0.542
 -0.536  -0.531  -0.519  -0.506  -0.505  -0.498  -0.492  -0.489
 -0.483  -0.450
 -- Virtual --
 -0.423  -0.401  -0.316  -0.250  -0.212  -0.188  -0.185  -0.169
 -0.159  -0.154  -0.142  -0.135  -0.125  -0.124  -0.116  -0.108
 -0.105  -0.099  -0.093  -0.089  -0.081  -0.074  -0.071  -0.049
 -0.044  -0.042  -0.032  -0.028  -0.025  -0.020  -0.017  -0.010
 -0.007  -0.006  -0.000   0.009   0.031   0.033   0.042   0.048
  0.055   0.073   0.090   0.108   0.123   0.127   0.135   0.148
  0.167   0.185   0.196   0.223   0.225   0.227   0.239   0.245
  0.255   0.260   0.268   0.275   0.281   0.287   0.289   0.302
  0.315   0.320   0.357   0.372   0.375   0.380   0.387   0.397
  0.401   0.408   0.414   0.416   0.431   0.431   0.437   0.443
  0.446   0.453   0.461   0.463   0.469   0.474   0.479   0.480
  0.486   0.488   0.492   0.494   0.495   0.504   0.510   0.512
  0.520   0.526   0.528   0.539   0.540   0.551   0.553   0.562
  0.564   0.570   0.576   0.579   0.593   0.596   0.601   0.606
  0.611   0.618   0.632   0.642   0.665   0.680   0.692   0.706
  0.721   0.733   0.763   0.779   0.793   0.814   0.826   0.832
  0.881   0.894   0.899   0.911   0.921   0.933   0.949   0.971
  0.979   0.993   1.031   1.033   1.073   1.088   1.122   1.134
  1.167   1.204   1.293   1.378   1.417
 
 Beta MOs
 -- Occupied --
******* -30.304 -26.051 -26.046 -26.044 -19.531 -19.425 -10.478
-10.472 -10.467 -10.461 -10.458 -10.444 -10.442 -10.438 -10.437
-10.429 -10.412 -10.400 -10.383 -10.380 -10.373 -10.372  -3.662
 -2.402  -2.390  -2.389  -1.542  -1.094  -1.084  -1.059  -1.013
 -1.006  -0.980  -0.959  -0.935  -0.901  -0.875  -0.856  -0.855
 -0.834  -0.793  -0.787  -0.774  -0.754  -0.742  -0.729  -0.700
 -0.692  -0.676  -0.666  -0.656  -0.649  -0.631  -0.626  -0.621
 -0.615  -0.607  -0.600  -0.598  -0.581  -0.577  -0.568  -0.559
 -0.550  -0.550  -0.545  -0.537  -0.533  -0.522  -0.507  -0.499
 -0.497  -0.491  -0.486  -0.470  -0.466  -0.452
 -- Virtual --
 -0.424  -0.407  -0.389  -0.376  -0.351  -0.332  -0.320  -0.252
 -0.213  -0.187  -0.174  -0.169  -0.157  -0.150  -0.140  -0.131
 -0.124  -0.120  -0.111  -0.107  -0.104  -0.097  -0.092  -0.087
 -0.081  -0.073  -0.072  -0.049  -0.043  -0.041  -0.032  -0.027
 -0.024  -0.019  -0.016  -0.010  -0.006  -0.002  -0.000   0.009
  0.032   0.034   0.041   0.049   0.057   0.073   0.088   0.108
  0.123   0.126   0.136   0.147   0.168   0.184   0.197   0.220
  0.224   0.227   0.240   0.247   0.256   0.260   0.269   0.276
  0.280   0.282   0.288   0.301   0.312   0.318   0.359   0.372
  0.375   0.378   0.389   0.397   0.400   0.412   0.414   0.417
  0.431   0.434   0.440   0.444   0.449   0.454   0.463   0.468
  0.473   0.476   0.479   0.483   0.489   0.492   0.493   0.495
  0.502   0.507   0.514   0.516   0.525   0.527   0.532   0.540
  0.545   0.551   0.554   0.563   0.570   0.577   0.580   0.592
  0.603   0.611   0.612   0.627   0.637   0.662   0.667   0.681
  0.696   0.711   0.717   0.727   0.748   0.763   0.766   0.788
  0.800   0.830   0.842   0.866   0.896   0.910   0.916   0.925
  0.939   0.950   0.957   0.974   0.991   1.012   1.033   1.044
  1.078   1.101   1.125   1.138   1.169   1.208   1.297   1.395
  1.435
 --------------------------------------------------------------
 
          Ground-State Mulliken Net Atomic Charges

     Atom                 Charge (a.u.)    Spin (a.u.)
  --------------------------------------------------------
      1 Fe                    1.102138       3.631452
      2 O                    -0.171899       0.168822
      3 O                    -0.278330       0.368755
      4 H                     0.142438      -0.000214
      5 H                     0.164925       0.001208
      6 C                    -0.226991       0.007494
      7 H                     0.135526      -0.000595
      8 H                     0.143136      -0.000245
      9 H                     0.151581      -0.000717
     10 C                    -0.170115      -0.000494
     11 C                    -0.421822      -0.016621
     12 C                    -0.136253       0.000364
     13 H                     0.154353       0.000747
     14 H                     0.174066      -0.005288
     15 H                     0.154459       0.014308
     16 H                     0.165304       0.002017
     17 C                    -0.196244       0.005459
     18 C                     0.101102       0.211729
     19 H                     0.145837      -0.002797
     20 H                     0.123155      -0.000441
     21 C                    -0.192140       0.011033
     22 C                    -0.039221      -0.199513
     23 C                    -0.264473       0.012191
     24 C                    -0.033213      -0.131761
     25 H                     0.176586      -0.006009
     26 H                     0.159556      -0.002477
     27 H                     0.166564       0.000777
     28 H                     0.121264       0.000209
     29 C                    -0.303100       0.220860
     30 H                     0.197351      -0.007923
     31 C                    -0.058945       0.105761
     32 H                     0.127973      -0.000030
     33 H                     0.149095      -0.008471
     34 C                    -0.083904      -0.087066
     35 H                     0.121187       0.002008
     36 H                     0.121234      -0.002730
     37 H                     0.155887      -0.000552
     38 C                    -0.062447      -0.129335
     39 C                    -0.067036       0.050805
     40 H                     0.111557       0.007076
     41 C                    -0.106424      -0.248026
     42 H                     0.190847       0.014548
     43 H                     0.155436       0.013682
  --------------------------------------------------------
  Sum of atomic charges =     2.000000
  Sum of spin   charges =     4.000000

 -----------------------------------------------------------------
                    Cartesian Multipole Moments
 -----------------------------------------------------------------
    Charge (ESU x 10^10)
                 9.6064
    Dipole Moment (Debye)
         X      -9.7793      Y       9.1223      Z       0.4550
       Tot      13.3813
    Quadrupole Moments (Debye-Ang)
        XX     -22.6292     XY      -9.7422     YY     -10.6653
        XZ       1.9900     YZ      -3.1158     ZZ    -117.3015
    Octopole Moments (Debye-Ang^2)
       XXX    -277.3135    XXY     -31.7306    XYY    -195.6896
       YYY     366.1864    XXZ     -29.2668    XYZ      12.0030
       YYZ      -5.6916    XZZ      -9.5188    YZZ      48.2834
       ZZZ      -5.3076
    Hexadecapole Moments (Debye-Ang^3)
      XXXX   -3488.8011   XXXY     278.9440   XXYY    -867.0386
      XYYY    -578.1171   YYYY   -1788.6094   XXXZ      93.7910
      XXYZ      10.7718   XYYZ       6.9575   YYYZ    -114.5600
      XXZZ   -1037.6421   XYZZ     -92.2111   YYZZ    -622.9583
      XZZZ       3.9487   YZZZ     -21.8077   ZZZZ    -453.2031
 -----------------------------------------------------------------
 Calculating analytic gradient of the SCF energy
 Gradient of SCF Energy
            1           2           3           4           5           6
    1   0.0082589   0.2671238   0.0986466  -0.0007107   0.0020464   0.0000260
    2  -0.0120340  -0.2230757   0.1305658   0.0011969  -0.0019992   0.0008084
    3   0.0046213   0.0398670   0.1948583   0.0001343   0.0001595  -0.0053036
            7           8           9          10          11          12
    1  -0.0007744  -0.0004621   0.0025755  -0.0034739  -0.0055766   0.0004295
    2   0.0008578  -0.0011709  -0.0006864   0.0048821   0.0008670  -0.0059688
    3   0.0000016   0.0004220  -0.0007475   0.0001500  -0.0052201   0.0001963
           13          14          15          16          17          18
    1   0.0021919   0.0014951  -0.0034075   0.0014421   0.0069706   0.0196569
    2   0.0001678   0.0003665  -0.0000015  -0.0017020   0.0010864   0.0639847
    3  -0.0011921   0.0005807   0.0051191  -0.0019956   0.0017395   0.0170700
           19          20          21          22          23          24
    1   0.0008416  -0.0011594   0.0012835  -0.0355722   0.0020220   0.0338777
    2   0.0011592   0.0011723  -0.0042228  -0.0038503  -0.0002201  -0.0817170
    3   0.0011641   0.0002409  -0.0004942  -0.0030954  -0.0003530  -0.0223099
           25          26          27          28          29          30
    1   0.0012384   0.0026544  -0.0016360  -0.0010134  -0.2021981   0.0009896
    2  -0.0000269  -0.0067579   0.0005379   0.0006683   0.1316532  -0.0052760
    3   0.0001446   0.0059051  -0.0002108   0.0004179  -0.1675668   0.0048647
           31          32          33          34          35          36
    1   0.0409704  -0.0010086  -0.0005647  -0.0425265  -0.2182456   0.0033656
    2   0.0155501   0.0003699   0.0024930   0.0124289  -0.0253491   0.0163096
    3  -0.0007064   0.0009363   0.0012692  -0.0091440  -0.0653699  -0.0035363
           37          38          39          40          41          42
    1   0.0002705   0.0367688  -0.0280559  -0.0004946   0.0112166  -0.0002440
    2  -0.0017704  -0.0101034   0.0088736  -0.0000458  -0.0106904   0.0001172
    3   0.0005430   0.0084054  -0.0062712   0.0001084   0.0044582   0.0000636
           43
    1   0.0007599
    2   0.0005576
    3   0.0000755
 Max gradient component =       2.671E-01
 RMS gradient           =       5.196E-02
 Gradient time:  CPU 1696.70 s  wall 243.95 s
 Geometry Optimization Parameters
   NAtoms,    NIC,     NZ,  NCons,   NDum,   NFix, NCnnct, MaxDiis
       43     341       0       0       0       0       0       0


** GEOMETRY OPTIMIZATION IN DELOCALIZED INTERNAL COORDINATES **
   Searching for a Minimum

   Optimization Cycle:   1

                       Coordinates (Angstroms)
     ATOM                X               Y               Z
      1  Fe       -1.6790327831    3.9120688508   -0.1759868447
      2  O        -0.9206306281    2.2590553711    0.1367376498
      3  O        -0.8632566873    1.1641712257   -0.5349990644
      4  H         3.8492887650   -1.6152897945    1.6336431798
      5  H         4.4067018283   -2.7791028231    0.3924220750
      6  C         3.5297011320   -2.2237013646    0.7713899478
      7  H         2.8013419408   -2.9652928386    1.1412646216
      8  H         4.4848333209    0.4253209936    1.1450174858
      9  H         4.9222834430   -0.8449729293   -1.0223787493
     10  C         4.1618338141    0.8222139935    0.1658693840
     11  C         2.9256577000   -1.3482037990   -0.3484414568
     12  C         3.9703412248   -0.3182744685   -0.8261733349
     13  H         4.9605595341    1.5046909266   -0.1706266636
     14  H        -1.1570587479   -3.5733379693    1.6625169665
     15  H         0.7424444179   -2.5646702482    0.6024537176
     16  H         3.5155275472   -2.6747730325   -1.9742397905
     17  C         2.5866677752   -2.2494168884   -1.5533150055
     18  C         1.6553325138   -0.6444177581    0.1757383692
     19  H         2.9076625974    2.2841005702    1.1766506146
     20  H         1.9272934054   -3.0884183287   -1.2780807716
     21  C         2.8460127812    1.5778968663    0.3281814762
     22  C         0.5003815058   -1.5336855004    0.3184703969
     23  C        -1.6165987268   -3.5801153837    0.6585286526
     24  C         1.6423608321    0.6812257092    0.5170716860
     25  H        -0.8965090636   -4.0790282712   -0.0145501671
     26  H         0.7702883683    2.1541600538    1.8244445380
     27  H        -2.5130030960   -4.2104442391    0.7100425437
     28  H         3.6356323287    0.1014122890   -1.7947865035
     29  C         0.4463525212    1.3869307661    1.0991829321
     30  H        -0.2468811717    0.7003953207    1.6071879903
     31  C        -0.8086528174   -1.2496953373    0.0618702451
     32  H         2.0828226939   -1.6710016432   -2.3465117894
     33  H         2.6741687998    2.2182351243   -0.5642924458
     34  C        -1.9158255507   -2.1815296707    0.1910176566
     35  H        -0.1361676770    1.9225423137    0.3239672339
     36  H        -1.0765271658   -0.2535204623   -0.3021115288
     37  H        -4.3630412284   -3.5441990722    0.2353971434
     38  C        -3.1817550409   -1.7435934937   -0.1137827872
     39  C        -4.4146778740   -2.4912157135   -0.0598501990
     40  H        -3.2804435626   -0.6989120267   -0.4352350826
     41  C        -5.6281755159   -1.9659567017   -0.3570208464
     42  H        -6.5424200978   -2.5604997116   -0.3074331076
     43  H        -5.7365839440   -0.9177646316   -0.6554349325
   Point Group: c1    Number of degrees of freedom:   123


   Energy is  -2035.915600926


 Attempting to Generate Delocalized Internal Coordinates

123 Hessian modes will be used to form the next step
  Hessian Eigenvalues:
     0.002590    0.003296    0.003578    0.005278    0.008193    0.008417
     0.008556    0.010942    0.012154    0.013452    0.013860    0.015327
     0.015413    0.015487    0.016733    0.019397    0.020749    0.021364
     0.021527    0.022549    0.025875    0.027190    0.028322    0.028323
     0.029381    0.030301    0.031602    0.042804    0.044921    0.048001
     0.049644    0.051867    0.053409    0.053925    0.054166    0.055418
     0.056401    0.059574    0.064915    0.069234    0.070349    0.072885
     0.078870    0.079623    0.083790    0.097409    0.098468    0.109130
     0.121727    0.131989    0.133328    0.148946    0.159693    0.159801
     0.159958    0.159999    0.159999    0.160000    0.160000    0.160000
     0.160000    0.160000    0.160000    0.160000    0.160000    0.160000
     0.160000    0.160000    0.172335    0.187252    0.189983    0.214765
     0.220000    0.220000    0.220014    0.220078    0.228449    0.228910
     0.249764    0.249992    0.249998    0.249999    0.272046    0.278039
     0.281266    0.283125    0.288284    0.293596    0.305119    0.317806
     0.318884    0.324114    0.328747    0.330668    0.330825    0.331258
     0.331420    0.331568    0.331620    0.332061    0.332240    0.333043
     0.333197    0.333348    0.333935    0.334595    0.336835    0.339640
     0.340110    0.340794    0.342161    0.342625    0.343665    0.346183
     0.363932    0.378717    0.391910    0.442730    0.494316    0.502572
     0.521785    0.526129    0.539131

 Minimum Search - Taking Simple RFO Step
 Searching for Lamda that Minimizes Along All modes
 Value Taken    Lamda =  -0.30164294
 Calculated Step too Large.  Step scaled by  0.398743
 Step Taken.  Stepsize is  0.300000

                             Maximum     Tolerance    Cnvgd?
         Gradient           0.168715      0.000300      NO
         Displacement       0.128725      0.001200      NO
         Energy change     *********      0.000001      NO


 New Cartesian Coordinates Obtained by Inverse Iteration

 Displacement from previous Coordinates is:  3.242197
 ----------------------------------------------------------------
             Standard Nuclear Orientation (Angstroms)
    I     Atom           X                Y                Z
 ----------------------------------------------------------------
    1      Fe     -1.1996243573     4.5063620987    -0.1748707335
    2      O      -0.6943201468     2.7475876538     0.1058742671
    3      O      -0.8027580683     1.6649308618    -0.6284930920
    4      H       3.7014133685    -1.6745283819     1.6504306889
    5      H       4.1951204942    -2.8615512215     0.4056311756
    6      C       3.3518243743    -2.2557056628     0.7812961191
    7      H       2.5758533542    -2.9530286313     1.1403571693
    8      H       4.4794973040     0.3003374802     1.1862558664
    9      H       4.8472711972    -0.9715451209    -0.9871911184
   10      C       4.1966028634     0.7290974515     0.2083916426
   11      C       2.8145460905    -1.3375851847    -0.3403602786
   12      C       3.9334433319    -0.3806472996    -0.7977515727
   13      H       5.0455467712     1.3553139723    -0.1119432492
   14      H      -1.0580343773    -3.6258268915     1.6199964319
   15      H       0.7059959655    -2.4861621142     0.5500020818
   16      H       3.3295620320    -2.6884679195    -1.9691911373
   17      C       2.4264946732    -2.2068936460    -1.5550583955
   18      C       1.5801997096    -0.5634892065     0.1743747862
   19      H       3.0448983860     2.2673246919     1.2194440719
   20      H       1.7115420929    -3.0032751326    -1.2920374679
   21      C       2.9400976349     1.5752415546     0.3643356175
   22      C       0.4248025965    -1.4599902474     0.2860745885
   23      C      -1.5244418390    -3.6548594531     0.6199931040
   24      C       1.6620516763     0.7822473420     0.5318602066
   25      H      -0.7758671219    -4.0907489422    -0.0652556720
   26      H       0.9914397801     2.3468621383     1.8349799889
   27      H      -2.3697764431    -4.3516611458     0.6714640260
   28      H       3.6414832947     0.0688420644    -1.7667522670
   29      C       0.5748857047     1.6318582647     1.1036407481
   30      H      -0.2081524849     1.0427792043     1.5998561219
   31      C      -0.9066670476    -1.2613763572     0.0426831961
   32      H       1.9694543024    -1.5922845523    -2.3493917622
   33      H       2.8311912720     2.2323382250    -0.5256495159
   34      C      -1.9310390107    -2.2771327824     0.1720493614
   35      H       0.0643625856     2.2795064345     0.3062143391
   36      H      -1.2561094894    -0.2907435146    -0.3059013444
   37      H      -4.2699437171    -3.8158186906     0.2195004268
   38      C      -3.2345457872    -1.9288922183    -0.1186271673
   39      C      -4.4021136574    -2.7669333161    -0.0627297614
   40      H      -3.4140979189    -0.8910470599    -0.4269868983
   41      C      -5.6561949294    -2.3258706039    -0.3455739081
   42      H      -6.5243145757    -2.9858920712    -0.2963312368
   43      H      -5.8433304721    -1.2852857965    -0.6307940112
 ----------------------------------------------------------------
 Molecular Point Group                 C1    NOp =  1
 Largest Abelian Subgroup              C1    NOp =  1
 Nuclear Repulsion Energy =  1693.4829815151 hartrees
 There are       82 alpha and       78 beta electrons
 Applying Cartesian multipole field
    Component          Value
    ---------          -----
     (2,0,0)        1.00000E-12
     (0,2,0)        2.00000E-11
     (0,0,2)       -3.00000E-11
 Nucleus-field energy     =     0.0000000749 hartrees
 Requested basis set is VDZ
 There are 147 shells and 231 basis functions
 A cutoff of  1.0D-12 yielded   8498 shell pairs
 There are     20948 function pairs (     21204 Cartesian)
 Smallest overlap matrix eigenvalue = 9.38E-04
 Guess MOs from SCF MO coefficient file

 -----------------------------------------------------------------------
  General SCF calculation program by
  Eric Jon Sundstrom, Paul Horn, Yuezhi Mao, Dmitri Zuev, Alec White,
  David Stuck, Shaama M.S., Shane Yost, Joonho Lee, David Small,
  Daniel Levine, Susi Lehtola, Hugh Burton, Evgeny Epifanovsky
 -----------------------------------------------------------------------
 Exchange:  B97M-V      Correlation:  B97M-V
 Using SG-2 standard quadrature grid
 Nonlocal Correlation:  rVV10 with C = 0.0100 and b = 6.00 and scale = 1.00000
 Grid used for NLC:  SG-1 standard quadrature
 using 12 threads for integral computing
 -------------------------------------------------------
 OpenMP Integral computing Module                
 Release: version 1.0, May 2013, Q-Chem Inc. Pittsburgh 
 -------------------------------------------------------
 -------------------------------------------------------
 OpenMP BLAS3 based DFT computing Module                
 Release: version 1.0, May 2013, Q-Chem Inc. Pittsburgh 
 -------------------------------------------------------
 -------------------------------------------------------
 OpenMP BLAS3 based DFT computing Module                
 Release: version 1.0, May 2013, Q-Chem Inc. Pittsburgh 
 -------------------------------------------------------
 -------------------------------------------------------
 OpenMP BLAS3 based DFT computing Module                
 Release: version 1.0, May 2013, Q-Chem Inc. Pittsburgh 
 -------------------------------------------------------
 Nonlocal correlation = 0.603385745319
 A unrestricted SCF calculation will be
 performed using DIIS, GDM
 SCF converges when RMS gradient is below 1.0e-08
 ---------------------------------------
  Cycle       Energy         DIIS error
 ---------------------------------------
 Nonlocal correlation = 6.030915495926e-01
    1   -2035.9374160523      1.09e-03  
    2   -2035.9131235081      1.65e-03  Done DIIS. Switching to GDM
 ---------------------------------------
  Cycle       Energy        RMS Gradient
 ---------------------------------------
 Nonlocal correlation = 6.028829987707e-01
    1   -2035.9131235081      3.46e-01   Descent step
 Nonlocal correlation = 6.030281967768e-01
    2   -2035.8737070390      5.23e-01  Line search: overstep
 Nonlocal correlation = 6.035776021190e-01
    3   -2035.9814069524      1.72e-01   Normal BFGS step
 Nonlocal correlation = 6.033109138712e-01
    4   -2035.9797813702      1.82e-01  Line search: overstep
 Nonlocal correlation = 6.032494884431e-01
    5   -2035.9936240622      5.52e-02   Normal BFGS step
 Nonlocal correlation = 6.032945688400e-01
    6   -2035.9866648824      1.63e-01  Line search: overstep
 Nonlocal correlation = 6.031686698465e-01
    7   -2035.9954394938      9.73e-03   Normal BFGS step
 Nonlocal correlation = 6.032376881016e-01
    8   -2035.9952814149      2.46e-02  Line search: overstep
 Nonlocal correlation = 6.032278547713e-01
    9   -2035.9957895802      9.48e-03   Normal BFGS step
 Nonlocal correlation = 6.032404888285e-01
   10   -2035.9958646254      2.31e-02   Normal BFGS step
 Nonlocal correlation = 6.032716622072e-01
   11   -2035.9959862045      5.73e-03   Normal BFGS step
 Nonlocal correlation = 6.032387003029e-01
   12   -2035.9960104957      1.16e-02   Normal BFGS step
 Nonlocal correlation = 6.032331078208e-01
   13   -2035.9961116279      7.02e-03   Normal BFGS step
 Nonlocal correlation = 6.032507570865e-01
   14   -2035.9961552701      1.33e-02   Normal BFGS step
 Nonlocal correlation = 6.032690227920e-01
   15   -2035.9962545346      7.18e-03   Normal BFGS step
 Nonlocal correlation = 6.032525392422e-01
   16   -2035.9962661895      1.09e-02   Normal BFGS step
 Nonlocal correlation = 6.032631259101e-01
   17   -2035.9963323228      7.25e-04   Normal BFGS step
 Nonlocal correlation = 6.032630564084e-01
   18   -2035.9963349904      5.29e-03   Normal BFGS step
 Nonlocal correlation = 6.032565431478e-01
   19   -2035.9963447945      1.31e-03   Normal BFGS step
 Nonlocal correlation = 6.032602772152e-01
   20   -2035.9963457589      7.19e-04   Normal BFGS step
 Nonlocal correlation = 6.032658653724e-01
   21   -2035.9963478329      6.21e-04   Normal BFGS step
 Nonlocal correlation = 6.032656473915e-01
   22   -2035.9963492869      6.05e-04   Normal BFGS step
 Nonlocal correlation = 6.032700052179e-01
   23   -2035.9963515201      5.65e-04   Normal BFGS step
 Nonlocal correlation = 6.032632801305e-01
   24   -2035.9963540210      2.00e-03   Normal BFGS step
 Nonlocal correlation = 6.032628243313e-01
   25   -2035.9963623973      9.04e-04   Normal BFGS step
 Nonlocal correlation = 6.032596729314e-01
   26   -2035.9963697110      7.93e-04   Normal BFGS step
 Nonlocal correlation = 6.032581343825e-01
   27   -2035.9963732838      3.14e-03   Normal BFGS step
 Nonlocal correlation = 6.032638659044e-01
   28   -2035.9963771638      2.25e-03   Normal BFGS step
 Nonlocal correlation = 6.032683627978e-01
   29   -2035.9963822183      1.01e-03   Normal BFGS step
 Nonlocal correlation = 6.032652721692e-01
   30   -2035.9963785263      4.48e-03  Line search: overstep
 Nonlocal correlation = 6.032636474408e-01
   31   -2035.9963831844      7.66e-04   Normal BFGS step
 Nonlocal correlation = 6.032613088913e-01
   32   -2035.9963854019      5.53e-04   Normal BFGS step
 Nonlocal correlation = 6.032649061712e-01
   33   -2035.9963879924      8.15e-04   Normal BFGS step
 Nonlocal correlation = 6.032631976987e-01
   34   -2035.9963889942      1.06e-03   Normal BFGS step
 Nonlocal correlation = 6.032612351049e-01
   35   -2035.9963912568      4.61e-04   Normal BFGS step
 Nonlocal correlation = 6.032626249401e-01
   36   -2035.9963915731      5.48e-04   Normal BFGS step
 Nonlocal correlation = 6.032628277544e-01
   37   -2035.9963920267      3.42e-04   Normal BFGS step
 Nonlocal correlation = 6.032629392953e-01
   38   -2035.9963921343      5.28e-04   Normal BFGS step
 Nonlocal correlation = 6.032618968800e-01
   39   -2035.9963922127      4.19e-04   Normal BFGS step
 Nonlocal correlation = 6.032624694833e-01
   40   -2035.9963921717      2.83e-04  Line search: overstep
 Nonlocal correlation = 6.032623418652e-01
   41   -2035.9963922965      1.03e-04   Normal BFGS step
 Nonlocal correlation = 6.032625414662e-01
   42   -2035.9963923057      6.61e-05   Normal BFGS step
 Nonlocal correlation = 6.032626551682e-01
   43   -2035.9963923287      8.74e-05   Normal BFGS step
 Nonlocal correlation = 6.032624237951e-01
   44   -2035.9963923348      3.13e-05   Normal BFGS step
 Nonlocal correlation = 6.032625171665e-01
   45   -2035.9963923404      3.13e-05   Normal BFGS step
 Nonlocal correlation = 6.032625922791e-01
   46   -2035.9963923427      1.70e-05   Normal BFGS step
 Nonlocal correlation = 6.032625372643e-01
   47   -2035.9963923443      1.00e-05   Normal BFGS step
 Nonlocal correlation = 6.032625419325e-01
   48   -2035.9963923449      7.56e-06   Normal BFGS step
 Nonlocal correlation = 6.032625481686e-01
   49   -2035.9963923449      2.40e-05   Normal BFGS step
 Nonlocal correlation = 6.032625529173e-01
   50   -2035.9963923449      2.23e-05   Normal BFGS step
 Nonlocal correlation = 6.032625698185e-01
   51   -2035.9963923449      2.15e-05   Normal BFGS step
 Nonlocal correlation = 6.032625371542e-01
   52   -2035.9963923448      1.75e-05   Normal BFGS step
 Nonlocal correlation = 6.032625470859e-01
   53   -2035.9963923450      6.86e-06   Normal BFGS step
 Nonlocal correlation = 6.032625612967e-01
   54   -2035.9963923451      2.60e-06   Normal BFGS step
 Nonlocal correlation = 6.032625458845e-01
   55   -2035.9963923451      1.16e-06   Normal BFGS step
 Nonlocal correlation = 6.032625426945e-01
   56   -2035.9963923451      2.13e-06   Normal BFGS step
 Nonlocal correlation = 6.032625613589e-01
   57   -2035.9963923451      1.58e-06   Normal BFGS step
 Nonlocal correlation = 6.032625514974e-01
   58   -2035.9963923451      1.46e-06   Normal BFGS step
 Nonlocal correlation = 6.032625442099e-01
   59   -2035.9963923451      1.09e-06   Normal BFGS step
 Nonlocal correlation = 6.032625524568e-01
   60   -2035.9963923451      2.53e-06   Normal BFGS step
 Nonlocal correlation = 6.032625504700e-01
   61   -2035.9963923451      4.98e-07   Normal BFGS step
 Nonlocal correlation = 6.032625512786e-01
   62   -2035.9963923451      1.16e-06   Normal BFGS step
 Nonlocal correlation = 6.032625520280e-01
   63   -2035.9963923451      1.67e-07   Normal BFGS step
 Nonlocal correlation = 6.032625514564e-01
   64   -2035.9963923451      2.91e-07   Normal BFGS step
 Nonlocal correlation = 6.032625522681e-01
   65   -2035.9963923451      1.25e-07   Normal BFGS step
 Nonlocal correlation = 6.032625519969e-01
   66   -2035.9963923451      1.53e-07   Normal BFGS step
 Nonlocal correlation = 6.032625515559e-01
   67   -2035.9963923451      5.04e-07   Normal BFGS step
 Nonlocal correlation = 6.032625520940e-01
   68   -2035.9963923451      7.28e-07   Normal BFGS step
 Nonlocal correlation = 6.032625534542e-01
   69   -2035.9963923451      5.03e-07   Normal BFGS step
 Nonlocal correlation = 6.032625521360e-01
   70   -2035.9963923451      5.22e-07   Normal BFGS step
 Nonlocal correlation = 6.032625521902e-01
   71   -2035.9963923451      2.61e-07   Normal BFGS step
 Nonlocal correlation = 6.032625523185e-01
   72   -2035.9963923451      4.18e-07   Normal BFGS step
 Nonlocal correlation = 6.032625524439e-01
   73   -2035.9963923451      3.26e-08   Normal BFGS step
 Nonlocal correlation = 6.032625523461e-01
   74   -2035.9963923451      3.73e-08   Normal BFGS step
 Nonlocal correlation = 6.032625523319e-01
   75   -2035.9963923451      9.82e-09  Convergence criterion met
 ---------------------------------------
 SCF time:   CPU 53035.94s  wall 4434.00s 
<S^2> =          6.295374057
 SCF   energy in the final basis set =    -2035.9963923451
 Total energy in the final basis set =    -2035.9963923451
 
 --------------------------------------------------------------
 
                    Orbital Energies (a.u.)
 --------------------------------------------------------------
 
 Alpha MOs
 -- Occupied --
******* -30.356 -26.097 -26.088 -26.083 -19.525 -19.432 -10.477
-10.476 -10.463 -10.457 -10.454 -10.452 -10.436 -10.434 -10.427
-10.427 -10.409 -10.398 -10.380 -10.378 -10.372 -10.371  -3.814
 -2.568  -2.545  -2.540  -1.504  -1.090  -1.077  -1.055  -1.009
 -1.001  -0.973  -0.949  -0.927  -0.896  -0.872  -0.856  -0.851
 -0.829  -0.789  -0.774  -0.754  -0.746  -0.742  -0.725  -0.712
 -0.690  -0.673  -0.663  -0.653  -0.647  -0.628  -0.621  -0.617
 -0.613  -0.606  -0.598  -0.594  -0.580  -0.576  -0.574  -0.568
 -0.566  -0.558  -0.557  -0.551  -0.549  -0.544  -0.541  -0.535
 -0.532  -0.530  -0.516  -0.503  -0.496  -0.490  -0.490  -0.486
 -0.485  -0.446
 -- Virtual --
 -0.416  -0.395  -0.314  -0.250  -0.207  -0.190  -0.178  -0.169
 -0.160  -0.150  -0.139  -0.127  -0.122  -0.121  -0.114  -0.108
 -0.106  -0.100  -0.091  -0.086  -0.079  -0.070  -0.067  -0.046
 -0.041  -0.038  -0.031  -0.027  -0.021  -0.020  -0.017  -0.008
 -0.007  -0.001   0.001   0.014   0.018   0.037   0.044   0.047
  0.054   0.075   0.088   0.107   0.118   0.132   0.133   0.150
  0.159   0.188   0.208   0.225   0.227   0.229   0.236   0.244
  0.253   0.261   0.267   0.279   0.284   0.286   0.293   0.312
  0.319   0.325   0.362   0.372   0.379   0.386   0.389   0.402
  0.406   0.416   0.421   0.425   0.432   0.435   0.442   0.446
  0.449   0.455   0.459   0.469   0.470   0.481   0.482   0.486
  0.489   0.493   0.494   0.498   0.499   0.509   0.512   0.520
  0.525   0.529   0.534   0.541   0.547   0.552   0.559   0.564
  0.569   0.575   0.580   0.583   0.588   0.598   0.606   0.615
  0.624   0.626   0.633   0.647   0.668   0.676   0.683   0.687
  0.719   0.731   0.761   0.779   0.787   0.795   0.821   0.825
  0.879   0.886   0.891   0.901   0.902   0.925   0.926   0.964
  0.970   0.995   1.023   1.038   1.056   1.071   1.110   1.127
  1.161   1.203   1.233   1.277   1.410
 
 Beta MOs
 -- Occupied --
******* -30.290 -26.036 -26.032 -26.030 -19.517 -19.418 -10.477
-10.474 -10.464 -10.459 -10.456 -10.451 -10.439 -10.434 -10.427
-10.423 -10.409 -10.398 -10.380 -10.378 -10.372 -10.371  -3.649
 -2.389  -2.379  -2.377  -1.488  -1.077  -1.064  -1.055  -1.011
 -0.999  -0.975  -0.946  -0.924  -0.898  -0.871  -0.855  -0.851
 -0.825  -0.790  -0.774  -0.751  -0.742  -0.725  -0.714  -0.699
 -0.691  -0.671  -0.660  -0.652  -0.646  -0.628  -0.622  -0.618
 -0.612  -0.606  -0.598  -0.594  -0.577  -0.576  -0.567  -0.557
 -0.550  -0.546  -0.543  -0.534  -0.531  -0.519  -0.504  -0.495
 -0.489  -0.487  -0.480  -0.460  -0.456  -0.447
 -- Virtual --
 -0.414  -0.405  -0.380  -0.364  -0.342  -0.328  -0.313  -0.252
 -0.209  -0.180  -0.173  -0.169  -0.157  -0.148  -0.137  -0.125
 -0.121  -0.115  -0.109  -0.108  -0.104  -0.098  -0.091  -0.086
 -0.078  -0.069  -0.068  -0.046  -0.039  -0.037  -0.030  -0.027
 -0.021  -0.019  -0.017  -0.008  -0.006  -0.001   0.005   0.015
  0.019   0.037   0.044   0.047   0.054   0.075   0.087   0.106
  0.117   0.131   0.134   0.149   0.159   0.187   0.207   0.223
  0.225   0.230   0.237   0.245   0.253   0.261   0.268   0.279
  0.284   0.286   0.287   0.312   0.316   0.323   0.364   0.373
  0.377   0.387   0.391   0.401   0.406   0.416   0.421   0.425
  0.432   0.439   0.443   0.448   0.450   0.457   0.461   0.469
  0.473   0.482   0.484   0.488   0.492   0.495   0.495   0.501
  0.509   0.511   0.518   0.528   0.529   0.533   0.536   0.547
  0.548   0.555   0.560   0.565   0.574   0.582   0.585   0.594
  0.604   0.610   0.621   0.627   0.643   0.659   0.669   0.678
  0.688   0.715   0.720   0.732   0.738   0.752   0.767   0.784
  0.796   0.820   0.837   0.855   0.889   0.898   0.905   0.921
  0.925   0.939   0.956   0.966   0.973   1.009   1.039   1.047
  1.063   1.073   1.117   1.128   1.161   1.207   1.244   1.287
  1.428
 --------------------------------------------------------------
 
          Ground-State Mulliken Net Atomic Charges

     Atom                 Charge (a.u.)    Spin (a.u.)
  --------------------------------------------------------
      1 Fe                    1.121233       3.531648
      2 O                    -0.246682       0.186122
      3 O                    -0.242348       0.442435
      4 H                     0.143896      -0.000241
      5 H                     0.163765       0.001042
      6 C                    -0.228219       0.007906
      7 H                     0.136721      -0.000759
      8 H                     0.141305      -0.000186
      9 H                     0.149584      -0.000800
     10 C                    -0.164601      -0.000550
     11 C                    -0.444303      -0.018267
     12 C                    -0.132122       0.000258
     13 H                     0.151624       0.000586
     14 H                     0.174175      -0.004477
     15 H                     0.153584       0.011585
     16 H                     0.163499       0.002095
     17 C                    -0.193216       0.005506
     18 C                     0.114259       0.215905
     19 H                     0.145237      -0.002563
     20 H                     0.121350      -0.000470
     21 C                    -0.212073       0.009974
     22 C                    -0.069784      -0.183147
     23 C                    -0.265729       0.008621
     24 C                    -0.025377      -0.121392
     25 H                     0.176556      -0.005101
     26 H                     0.155011      -0.002191
     27 H                     0.167285       0.000234
     28 H                     0.120853       0.000275
     29 C                    -0.297850       0.194327
     30 H                     0.179752      -0.007360
     31 C                    -0.085018       0.070375
     32 H                     0.129476       0.000041
     33 H                     0.148573      -0.007331
     34 C                    -0.060693      -0.078476
     35 H                     0.173710       0.004569
     36 H                     0.151332      -0.003449
     37 H                     0.155202      -0.000590
     38 C                    -0.066362      -0.112743
     39 C                    -0.075919       0.047051
     40 H                     0.121146       0.006543
     41 C                    -0.101931      -0.222273
     42 H                     0.190090       0.013061
     43 H                     0.163010       0.012207
  --------------------------------------------------------
  Sum of atomic charges =     2.000000
  Sum of spin   charges =     4.000000

 -----------------------------------------------------------------
                    Cartesian Multipole Moments
 -----------------------------------------------------------------
    Charge (ESU x 10^10)
                 9.6064
    Dipole Moment (Debye)
         X      -8.2128      Y      10.8845      Z       0.3835
       Tot      13.6407
    Quadrupole Moments (Debye-Ang)
        XX     -28.3677     XY       0.4400     YY      16.7715
        XZ       2.2168     YZ      -2.6846     ZZ    -117.4444
    Octopole Moments (Debye-Ang^2)
       XXX    -293.6020    XXY     -79.8624    XYY    -208.8495
       YYY     500.4005    XXZ     -26.6098    XYZ       8.5830
       YYZ      -9.3169    XZZ     -13.4671    YZZ      42.0274
       ZZZ      -4.4258
    Hexadecapole Moments (Debye-Ang^3)
      XXXX   -3323.6271   XXXY     333.7171   XXYY    -931.2511
      XYYY    -699.5101   YYYY   -1333.1661   XXXZ      87.1368
      XXYZ      23.8554   XYYZ       4.2033   YYYZ    -147.3297
      XXZZ   -1010.9953   XYZZ    -135.9944   YYZZ    -723.9196
      XZZZ     -12.6636   YZZZ     -26.1332   ZZZZ    -453.9034
 -----------------------------------------------------------------
 Calculating analytic gradient of the SCF energy
 Gradient of SCF Energy
            1           2           3           4           5           6
    1   0.0068507   0.1721461   0.1004674  -0.0004862   0.0013937   0.0001154
    2  -0.0089799  -0.1859808   0.0997045   0.0011332  -0.0017740   0.0011794
    3   0.0023335   0.0420004   0.1456446   0.0002750   0.0002626  -0.0046963
            7           8           9          10          11          12
    1  -0.0014793  -0.0006667   0.0021322  -0.0038039  -0.0070672   0.0001577
    2   0.0008348  -0.0008973  -0.0003345   0.0043200   0.0003196  -0.0048254
    3  -0.0000764   0.0004316  -0.0002528  -0.0003009  -0.0051209   0.0011543
           13          14          15          16          17          18
    1   0.0016226   0.0015643  -0.0020875   0.0008761   0.0048469   0.0236392
    2   0.0000022   0.0005383  -0.0015317  -0.0014143   0.0010897   0.0484209
    3  -0.0010893   0.0004147   0.0049039  -0.0014120   0.0022462   0.0134648
           19          20          21          22          23          24
    1   0.0006209  -0.0018643  -0.0029013  -0.0335348   0.0016461   0.0263162
    2   0.0011668   0.0010722  -0.0021079  -0.0117787  -0.0009406  -0.0689191
    3   0.0014703   0.0008857   0.0019729  -0.0079370  -0.0004500  -0.0165747
           25          26          27          28          29          30
    1   0.0011264   0.0021255  -0.0013527  -0.0009925  -0.1438520   0.0052089
    2   0.0002643  -0.0063220   0.0001139   0.0004824   0.1412188  -0.0047037
    3   0.0002857   0.0058922  -0.0000096   0.0002661  -0.1288664   0.0068126
           31          32          33          34          35          36
    1   0.0355481  -0.0009191   0.0000446  -0.0362959  -0.1672731  -0.0006147
    2  -0.0031708   0.0003200   0.0023321   0.0060784   0.0064851  -0.0040372
    3  -0.0003337   0.0006790   0.0012242  -0.0061713  -0.0655231   0.0005277
           37          38          39          40          41          42
    1   0.0007459   0.0306112  -0.0229240  -0.0006393   0.0087871  -0.0002502
    2  -0.0013659  -0.0063655   0.0057875   0.0000692  -0.0082593   0.0003586
    3   0.0003041   0.0069005  -0.0049271   0.0000444   0.0033508   0.0000664
           43
    1   0.0004100
    2   0.0004245
    3  -0.0000735
 Max gradient component =       1.860E-01
 RMS gradient           =       4.054E-02
 Gradient time:  CPU 1692.50 s  wall 242.00 s
 Geometry Optimization Parameters
   NAtoms,    NIC,     NZ,  NCons,   NDum,   NFix, NCnnct, MaxDiis
       43     341       0       0       0       0       0       0

 Cartesian Hessian Update
 Hessian Updated using BFGS Update


** GEOMETRY OPTIMIZATION IN DELOCALIZED INTERNAL COORDINATES **
   Searching for a Minimum

   Optimization Cycle:   2

                       Coordinates (Angstroms)
     ATOM                X               Y               Z
      1  Fe       -1.1996243573    4.5063620987   -0.1748707335
      2  O        -0.6943201468    2.7475876538    0.1058742671
      3  O        -0.8027580683    1.6649308618   -0.6284930920
      4  H         3.7014133685   -1.6745283819    1.6504306889
      5  H         4.1951204942   -2.8615512215    0.4056311756
      6  C         3.3518243743   -2.2557056628    0.7812961191
      7  H         2.5758533542   -2.9530286313    1.1403571693
      8  H         4.4794973040    0.3003374802    1.1862558664
      9  H         4.8472711972   -0.9715451209   -0.9871911184
     10  C         4.1966028634    0.7290974515    0.2083916426
     11  C         2.8145460905   -1.3375851847   -0.3403602786
     12  C         3.9334433319   -0.3806472996   -0.7977515727
     13  H         5.0455467712    1.3553139723   -0.1119432492
     14  H        -1.0580343773   -3.6258268915    1.6199964319
     15  H         0.7059959655   -2.4861621142    0.5500020818
     16  H         3.3295620320   -2.6884679195   -1.9691911373
     17  C         2.4264946732   -2.2068936460   -1.5550583955
     18  C         1.5801997096   -0.5634892065    0.1743747862
     19  H         3.0448983860    2.2673246919    1.2194440719
     20  H         1.7115420929   -3.0032751326   -1.2920374679
     21  C         2.9400976349    1.5752415546    0.3643356175
     22  C         0.4248025965   -1.4599902474    0.2860745885
     23  C        -1.5244418390   -3.6548594531    0.6199931040
     24  C         1.6620516763    0.7822473420    0.5318602066
     25  H        -0.7758671219   -4.0907489422   -0.0652556720
     26  H         0.9914397801    2.3468621383    1.8349799889
     27  H        -2.3697764431   -4.3516611458    0.6714640260
     28  H         3.6414832947    0.0688420644   -1.7667522670
     29  C         0.5748857047    1.6318582647    1.1036407481
     30  H        -0.2081524849    1.0427792043    1.5998561219
     31  C        -0.9066670476   -1.2613763572    0.0426831961
     32  H         1.9694543024   -1.5922845523   -2.3493917622
     33  H         2.8311912720    2.2323382250   -0.5256495159
     34  C        -1.9310390107   -2.2771327824    0.1720493614
     35  H         0.0643625856    2.2795064345    0.3062143391
     36  H        -1.2561094894   -0.2907435146   -0.3059013444
     37  H        -4.2699437171   -3.8158186906    0.2195004268
     38  C        -3.2345457872   -1.9288922183   -0.1186271673
     39  C        -4.4021136574   -2.7669333161   -0.0627297614
     40  H        -3.4140979189   -0.8910470599   -0.4269868983
     41  C        -5.6561949294   -2.3258706039   -0.3455739081
     42  H        -6.5243145757   -2.9858920712   -0.2963312368
     43  H        -5.8433304721   -1.2852857965   -0.6307940112
   Point Group: c1    Number of degrees of freedom:   123


   Energy is  -2035.996392345

 Hessian Updated using BFGS Update

114 Hessian modes will be used to form the next step
  Hessian Eigenvalues:
     0.002593    0.003296    0.003578    0.005278    0.008193    0.008556
     0.008860    0.011001    0.012279    0.013455    0.013838    0.015412
     0.015487    0.015571    0.016733    0.019420    0.020756    0.021364
     0.021528    0.022549    0.025875    0.027189    0.028322    0.028323
     0.029569    0.030496    0.031687    0.042808    0.044908    0.047999
     0.049643    0.051872    0.053399    0.053923    0.054165    0.055418
     0.056401    0.059574    0.064675    0.069295    0.070349    0.072882
     0.078918    0.079622    0.083788    0.097409    0.098470    0.108378
     0.121708    0.131237    0.132988    0.139428    0.149475    0.159810
     0.159891    0.159999    0.159999    0.160000    0.160019    0.161729
     0.187433    0.189669    0.192355    0.219979    0.220000    0.220011
     0.227327    0.228388    0.229030    0.249774    0.249940    0.249998
     0.272043    0.277891    0.281235    0.283106    0.288209    0.293263
     0.305097    0.312974    0.318883    0.324114    0.328747    0.330659
     0.330814    0.331247    0.331410    0.331567    0.331619    0.332059
     0.332237    0.333043    0.333196    0.333341    0.333934    0.334594
     0.336799    0.339640    0.340107    0.340779    0.342161    0.342617
     0.342917    0.346182    0.360047    0.377773    0.390870    0.424157
     0.444576    0.483350    0.503060    0.521693    0.539068    1.280184

 Minimum Search - Taking Simple RFO Step
 Searching for Lamda that Minimizes Along All modes
 Value Taken    Lamda =  -0.19243564
 Calculated Step too Large.  Step scaled by  0.392636
 Step Taken.  Stepsize is  0.300000

                             Maximum     Tolerance    Cnvgd?
         Gradient           0.110578      0.000300      NO
         Displacement       0.110044      0.001200      NO
         Energy change     -0.080791      0.000001      NO


 New Cartesian Coordinates Obtained by Inverse Iteration

 Displacement from previous Coordinates is:  0.950460
 ----------------------------------------------------------------
             Standard Nuclear Orientation (Angstroms)
    I     Atom           X                Y                Z
 ----------------------------------------------------------------
    1      Fe     -1.3935985084     4.3990796215    -0.2211992600
    2      O      -0.8161142832     2.6557345135     0.0636695446
    3      O      -0.9033906042     1.5512549521    -0.7098203657
    4      H       3.7463581268    -1.6781933844     1.6520363103
    5      H       4.2565134588    -2.8473605553     0.3989937118
    6      C       3.4039244398    -2.2614109568     0.7818712045
    7      H       2.6453804019    -2.9764808693     1.1424631966
    8      H       4.4891993298     0.3259638946     1.1853989925
    9      H       4.8674664902    -0.9411399240    -0.9880606613
   10      C       4.1937795588     0.7484329040     0.2088669377
   11      C       2.8451582155    -1.3489988307    -0.3373926840
   12      C       3.9449677054    -0.3672074469    -0.7951317201
   13      H       5.0294085582     1.3885576801    -0.1158878520
   14      H      -1.0693230273    -3.6386857209     1.6135598897
   15      H       0.7254564837    -2.5080136348     0.5475585017
   16      H       3.3825605023    -2.6821059429    -1.9709935238
   17      C       2.4701121312    -2.2216772793    -1.5562190988
   18      C       1.5987405666    -0.5962739208     0.1817969686
   19      H       3.0233069088     2.2694233327     1.2254119252
   20      H       1.7725061006    -3.0343043164    -1.2977555870
   21      C       2.9245393465     1.5765649670     0.3716280018
   22      C       0.4503950945    -1.4786142089     0.2946353105
   23      C      -1.5369040278    -3.6460640249     0.6143509542
   24      C       1.6604478565     0.7623715962     0.5468324821
   25      H      -0.7993959783    -4.0894043248    -0.0776159927
   26      H       0.9420491175     2.2881038277     1.8429333293
   27      H      -2.3949158429    -4.3267540254     0.6597122285
   28      H       3.6416604481     0.0773437168    -1.7627737016
   29      C       0.5601853132     1.5501859876     1.1159425100
   30      H      -0.2031834187     0.9341154767     1.6074900177
   31      C      -0.8871368381    -1.2548766682     0.0590196985
   32      H       2.0010958144    -1.6137681192    -2.3486492155
   33      H       2.7998577634     2.2301939904    -0.5185719700
   34      C      -1.9162361466    -2.2558901820     0.1829268891
   35      H       0.0034816674     2.1957299161     0.2853344356
   36      H      -1.2219912614    -0.2732700017    -0.2777383667
   37      H      -4.2880352126    -3.7434179532     0.2180535031
   38      C      -3.2211533290    -1.8751191255    -0.1031158402
   39      C      -4.3974615198    -2.6897337302    -0.0525848678
   40      H      -3.3806540094    -0.8307949880    -0.4001133828
   41      C      -5.6449094894    -2.2126323123    -0.3306934285
   42      H      -6.5283912393    -2.8524246411    -0.2880047594
   43      H      -5.8075072519    -1.1650530159    -0.6043488299
 ----------------------------------------------------------------
 Molecular Point Group                 C1    NOp =  1
 Largest Abelian Subgroup              C1    NOp =  1
 Nuclear Repulsion Energy =  1692.0115915864 hartrees
 There are       82 alpha and       78 beta electrons
 Applying Cartesian multipole field
    Component          Value
    ---------          -----
     (2,0,0)        1.00000E-12
     (0,2,0)        2.00000E-11
     (0,0,2)       -3.00000E-11
 Nucleus-field energy     =     0.0000000718 hartrees
 Requested basis set is VDZ
 There are 147 shells and 231 basis functions
 A cutoff of  1.0D-12 yielded   8521 shell pairs
 There are     21049 function pairs (     21314 Cartesian)
 Smallest overlap matrix eigenvalue = 9.29E-04
 Guess MOs from SCF MO coefficient file

 -----------------------------------------------------------------------
  General SCF calculation program by
  Eric Jon Sundstrom, Paul Horn, Yuezhi Mao, Dmitri Zuev, Alec White,
  David Stuck, Shaama M.S., Shane Yost, Joonho Lee, David Small,
  Daniel Levine, Susi Lehtola, Hugh Burton, Evgeny Epifanovsky
 -----------------------------------------------------------------------
 Exchange:  B97M-V      Correlation:  B97M-V
 Using SG-2 standard quadrature grid
 Nonlocal Correlation:  rVV10 with C = 0.0100 and b = 6.00 and scale = 1.00000
 Grid used for NLC:  SG-1 standard quadrature
 using 12 threads for integral computing
 -------------------------------------------------------
 OpenMP Integral computing Module                
 Release: version 1.0, May 2013, Q-Chem Inc. Pittsburgh 
 -------------------------------------------------------
 -------------------------------------------------------
 OpenMP BLAS3 based DFT computing Module                
 Release: version 1.0, May 2013, Q-Chem Inc. Pittsburgh 
 -------------------------------------------------------
 -------------------------------------------------------
 OpenMP BLAS3 based DFT computing Module                
 Release: version 1.0, May 2013, Q-Chem Inc. Pittsburgh 
 -------------------------------------------------------
 -------------------------------------------------------
 OpenMP BLAS3 based DFT computing Module                
 Release: version 1.0, May 2013, Q-Chem Inc. Pittsburgh 
 -------------------------------------------------------
 Nonlocal correlation = 0.603480819446
 A unrestricted SCF calculation will be
 performed using DIIS, GDM
 SCF converges when RMS gradient is below 1.0e-08
 ---------------------------------------
  Cycle       Energy         DIIS error
 ---------------------------------------
 Nonlocal correlation = 6.033920037387e-01
    1   -2036.0533108221      4.00e-04  
    2   -2036.0595714587      1.23e-04  Done DIIS. Switching to GDM
 ---------------------------------------
  Cycle       Energy        RMS Gradient
 ---------------------------------------
 Nonlocal correlation = 6.034456449907e-01
    1   -2036.0595714587      1.62e-02   Normal BFGS step
 Nonlocal correlation = 6.034070331410e-01
    2   -2036.0575841224      3.90e-02  Line search: overstep
 Nonlocal correlation = 6.034092746382e-01
    3   -2036.0599422777      6.36e-03   Normal BFGS step
 Nonlocal correlation = 6.034076112610e-01
    4   -2036.0597361439      4.54e-02  Line search: overstep
 Nonlocal correlation = 6.034094139034e-01
    5   -2036.0599721536      7.25e-03   Normal BFGS step
 Nonlocal correlation = 6.034081198725e-01
    6   -2036.0598498005      2.99e-02  Line search: overstep
 Nonlocal correlation = 6.034239561555e-01
    7   -2036.0599919404      3.17e-03   Normal BFGS step
 Nonlocal correlation = 6.034141182974e-01
    8   -2036.0599993299      2.96e-03   Normal BFGS step
 Nonlocal correlation = 6.034094321792e-01
    9   -2036.0600334094      1.59e-03   Normal BFGS step
 Nonlocal correlation = 6.034118337213e-01
   10   -2036.0600325072      2.94e-03  Line search: overstep
 Nonlocal correlation = 6.034162720531e-01
   11   -2036.0600418802      1.72e-03   Normal BFGS step
 Nonlocal correlation = 6.034145872696e-01
   12   -2036.0600477821      2.46e-03   Normal BFGS step
 Nonlocal correlation = 6.034151583994e-01
   13   -2036.0600532068      1.44e-03   Normal BFGS step
 Nonlocal correlation = 6.034149051171e-01
   14   -2036.0600533201      1.09e-03   Normal BFGS step
 Nonlocal correlation = 6.034151347561e-01
   15   -2036.0600576835      3.44e-04   Normal BFGS step
 Nonlocal correlation = 6.034152282582e-01
   16   -2036.0600581986      2.14e-04   Normal BFGS step
 Nonlocal correlation = 6.034146403019e-01
   17   -2036.0600585330      1.75e-04   Normal BFGS step
 Nonlocal correlation = 6.034148837546e-01
   18   -2036.0600586836      1.44e-04   Normal BFGS step
 Nonlocal correlation = 6.034156611195e-01
   19   -2036.0600588283      1.12e-04   Normal BFGS step
 Nonlocal correlation = 6.034146244592e-01
   20   -2036.0600590009      5.85e-05   Normal BFGS step
 Nonlocal correlation = 6.034149228801e-01
   21   -2036.0600590579      5.25e-05   Normal BFGS step
 Nonlocal correlation = 6.034150484353e-01
   22   -2036.0600590904      4.00e-05   Normal BFGS step
 Nonlocal correlation = 6.034148638468e-01
   23   -2036.0600590999      1.38e-05   Normal BFGS step
 Nonlocal correlation = 6.034149015372e-01
   24   -2036.0600591017      1.05e-05   Normal BFGS step
 Nonlocal correlation = 6.034149073527e-01
   25   -2036.0600591029      9.85e-06   Normal BFGS step
 Nonlocal correlation = 6.034148790676e-01
   26   -2036.0600591040      3.23e-05   Normal BFGS step
  /scratch/qcdevops/jenkins/workspace/build_qchem_linux_distrib/tags/qc511/qchem/libgscf/libgscf/opt/gdm.C::WARNING energy changes are now smaller than effective accuracy.
  /scratch/qcdevops/jenkins/workspace/build_qchem_linux_distrib/tags/qc511/qchem/libgscf/libgscf/opt/gdm.C::        calculation will continue, but THRESH should be increased
  /scratch/qcdevops/jenkins/workspace/build_qchem_linux_distrib/tags/qc511/qchem/libgscf/libgscf/opt/gdm.C::        or SCF_CONVERGENCE decreased. 
[...]

 -----------------------------------------------------------------
                    Cartesian Multipole Moments
 -----------------------------------------------------------------
    Charge (ESU x 10^10)
                 9.6064
    Dipole Moment (Debye)
         X      -8.9929      Y      10.1614      Z      -0.4741
       Tot      13.5776
    Quadrupole Moments (Debye-Ang)
        XX     -21.0853     XY      -6.1318     YY      10.3885
        XZ       3.5555     YZ     -10.3196     ZZ    -116.7646
    Octopole Moments (Debye-Ang^2)
       XXX    -292.4085    XXY     -50.7320    XYY    -219.6364
       YYY     477.2432    XXZ     -16.7314    XYZ      26.1479
       YYZ     -43.6443    XZZ      -9.2086    YZZ      50.9665
       ZZZ       8.9362
    Hexadecapole Moments (Debye-Ang^3)
      XXXX   -3328.7229   XXXY     357.9326   XXYY    -878.0075
      XYYY    -710.0491   YYYY   -1327.7387   XXXZ      41.8172
      XXYZ       9.3523   XYYZ      67.5161   YYYZ    -240.0422
      XXZZ   -1036.9974   XYZZ    -102.2797   YYZZ    -661.8570
      XZZZ     -16.8457   YZZZ      62.2527   ZZZZ    -505.6263
 -----------------------------------------------------------------
 Calculating analytic gradient of the SCF energy
 Gradient of SCF Energy
            1           2           3           4           5           6
    1   0.0015775   0.0141690   0.0194322  -0.0000542  -0.0001044   0.0008251
    2   0.0010359  -0.0139164   0.0023529   0.0000971  -0.0002990  -0.0003997
    3   0.0032616   0.0190256   0.0244750  -0.0000279  -0.0000286  -0.0011404
            7           8           9          10          11          12
    1  -0.0001402  -0.0001902   0.0003029  -0.0006070  -0.0016771   0.0004434
    2   0.0002415   0.0000576   0.0002718   0.0016991   0.0004879  -0.0011218
    3   0.0003446   0.0001208   0.0002181  -0.0010374  -0.0028541   0.0007892
           13          14          15          16          17          18
    1   0.0002755   0.0002003  -0.0000367   0.0000160   0.0011034   0.0010914
    2  -0.0004310   0.0000185   0.0003186  -0.0001639   0.0002082   0.0001159
    3  -0.0004103  -0.0000287   0.0046213  -0.0000031  -0.0004184   0.0014948
           19          20          21          22          23          24
    1   0.0003790  -0.0006747   0.0001941  -0.0005280  -0.0001767   0.0018340
    2  -0.0009476   0.0005058  -0.0009856  -0.0002249  -0.0004840  -0.0044562
    3   0.0009291   0.0000208  -0.0004244  -0.0001768  -0.0005287   0.0051879
           25          26          27          28          29          30
    1   0.0001677   0.0004671  -0.0000363  -0.0003721  -0.0221833   0.0014461
    2   0.0000972  -0.0031951   0.0000799  -0.0001086   0.0238592  -0.0010986
    3   0.0001366   0.0036786   0.0001419   0.0000134  -0.0258451   0.0019985
           31          32          33          34          35          36
    1   0.0011050  -0.0002070  -0.0000694  -0.0011614  -0.0169787  -0.0001697
    2  -0.0009739  -0.0000266   0.0013914   0.0005846  -0.0045348   0.0003841
    3  -0.0043461   0.0000733   0.0010785  -0.0003158  -0.0325215   0.0017909
           37          38          39          40          41          42
    1   0.0000765   0.0012201  -0.0011078  -0.0001253   0.0002544  -0.0000166
    2  -0.0000500  -0.0004411   0.0005286  -0.0000252  -0.0004453  -0.0000024
    3  -0.0001027   0.0005961  -0.0002579   0.0001172   0.0002559   0.0000628
           43
    1   0.0000322
    2   0.0000054
    3   0.0000336
 Max gradient component =       3.252E-02
 RMS gradient           =       6.235E-03
 Gradient time:  CPU 1692.12 s  wall 241.73 s
 Geometry Optimization Parameters
   NAtoms,    NIC,     NZ,  NCons,   NDum,   NFix, NCnnct, MaxDiis
       43     341       0       0       0       0       0       0

 Cartesian Hessian Update
 Hessian Updated using BFGS Update


** GEOMETRY OPTIMIZATION IN DELOCALIZED INTERNAL COORDINATES **
   Searching for a Minimum

   Optimization Cycle:   7

                       Coordinates (Angstroms)
     ATOM                X               Y               Z
      1  Fe       -1.4997610438    4.3655873395   -0.5768917885
      2  O        -0.9471680125    2.6366572625   -0.1954453435
      3  O        -1.0848467635    1.5828519104   -1.1333963977
      4  H         3.7558869845   -1.7050930836    1.6693968970
      5  H         4.3423889840   -2.8075418169    0.3932834900
      6  C         3.4566331373   -2.2757387818    0.7761474000
      7  H         2.7221757471   -3.0343873618    1.0940085526
      8  H         4.4730471639    0.3274142532    1.2478040099
      9  H         4.9018452416   -0.8714385876   -0.9528904185
     10  C         4.1691885742    0.7582697519    0.2785659616
     11  C         2.8912195079   -1.3612515907   -0.3442969869
     12  C         3.9627549662   -0.3288207215   -0.7589214607
     13  H         4.9818427343    1.4364310097   -0.0214853263
     14  H        -1.0617533847   -3.7501265080    1.5426369264
     15  H         0.7506138851   -2.5905639849    0.3439639311
     16  H         3.5280815615   -2.6289083452   -1.9832662883
     17  C         2.5812495693   -2.2259413948   -1.5897713436
     18  C         1.6083740640   -0.6792782655    0.1596236328
     19  H         2.9447307288    2.2372455652    1.3057236524
     20  H         1.9264673839   -3.0834020884   -1.3696752003
     21  C         2.8750220191    1.5495915751    0.4465122723
     22  C         0.4944465224   -1.5310252804    0.2567180494
     23  C        -1.5448205733   -3.6699165998    0.5552468184
     24  C         1.6245834210    0.7201573131    0.6011096116
     25  H        -0.8438197041   -4.0937819544   -0.1841249030
     26  H         0.7857058864    2.1831575292    1.8927184347
     27  H        -2.4236417826   -4.3236396969    0.5736866489
     28  H         3.6641835195    0.1280879594   -1.7219206499
     29  C         0.5234739389    1.3789244632    1.1880579189
     30  H        -0.2948937869    0.7668568047    1.5811605416
     31  C        -0.8773067526   -1.2528309696    0.1322858915
     32  H         2.1102570721   -1.6242451113   -2.3849248105
     33  H         2.7366641368    2.2004196281   -0.4436673729
     34  C        -1.8849171096   -2.2448298221    0.2260030568
     35  H        -0.0571814558    2.0879221342    0.2592503467
     36  H        -1.1892180640   -0.2359952391   -0.1225093161
     37  H        -4.3142527980   -3.6626712706    0.2523014896
     38  C        -3.2039572992   -1.8078049763   -0.0030568307
     39  C        -4.3863016652   -2.5952259697    0.0391987492
     40  H        -3.3321902122   -0.7446612756   -0.2375673035
     41  C        -5.6217366751   -2.0491187524   -0.1871243280
     42  H        -6.5301481694   -2.6545712576   -0.1586786575
     43  H        -5.7446720853   -0.9833775196   -0.4019741213
   Point Group: c1    Number of degrees of freedom:   123


   Energy is  -2036.169001761

 Hessian Updated using BFGS Update

119 Hessian modes will be used to form the next step
  Hessian Eigenvalues:
     0.002596    0.003296    0.003578    0.005279    0.008179    0.008556
     0.009271    0.011024    0.012417    0.013419    0.014455    0.015439
     0.015488    0.015618    0.016734    0.019662    0.020757    0.021364
     0.021540    0.022549    0.025884    0.026696    0.028323    0.028323
     0.029430    0.030771    0.031959    0.042815    0.044353    0.048043
     0.049657    0.050417    0.051914    0.053465    0.053951    0.054178
     0.055418    0.056403    0.059575    0.069442    0.070348    0.072896
     0.078997    0.079601    0.083784    0.087919    0.097448    0.098550
     0.115957    0.121856    0.133063    0.133879    0.151778    0.159916
     0.159993    0.159999    0.160000    0.160000    0.160001    0.160004
     0.160007    0.160025    0.160178    0.160461    0.160922    0.187451
     0.189414    0.219641    0.220016    0.220138    0.222433    0.227891
     0.229635    0.235957    0.249994    0.250128    0.251412    0.272235
     0.277955    0.281353    0.283191    0.288246    0.293375    0.305246
     0.318893    0.324088    0.326094    0.328748    0.330696    0.330860
     0.331297    0.331466    0.331569    0.331624    0.332069    0.332247
     0.333043    0.333201    0.333370    0.333937    0.334596    0.336942
     0.339643    0.340121    0.340815    0.342162    0.342633    0.342923
     0.346183    0.362822    0.378643    0.392143    0.423104    0.452940
     0.478875    0.503335    0.522747    0.539697    1.301761

 Minimum Search - Taking Simple RFO Step
 Searching for Lamda that Minimizes Along All modes
 Value Taken    Lamda =  -0.02112672
 Calculated Step too Large.  Step scaled by  0.521383
 Step Taken.  Stepsize is  0.300000

                             Maximum     Tolerance    Cnvgd?
         Gradient           0.016187      0.000300      NO
         Displacement       0.111164      0.001200      NO
         Energy change     -0.013937      0.000001      NO


 New Cartesian Coordinates Obtained by Inverse Iteration

 Displacement from previous Coordinates is:  0.392212
 ----------------------------------------------------------------
             Standard Nuclear Orientation (Angstroms)
    I     Atom           X                Y                Z
 ----------------------------------------------------------------
    1      Fe     -1.5227676416     4.3403176502    -0.6374413182
    2      O      -0.9704619279     2.6285737101    -0.1929579364
    3      O      -1.1703148781     1.5908143040    -1.1397306600
    4      H       3.7653366834    -1.6966821528     1.6717937026
    5      H       4.3607157177    -2.7949407006     0.3966588140
    6      C       3.4704008301    -2.2705319739     0.7792218993
    7      H       2.7415302474    -3.0347181528     1.0964505927
    8      H       4.4842023891     0.3416386677     1.2339831611
    9      H       4.9006028529    -0.8625717420    -0.9663861744
   10      C       4.1674028579     0.7655021319     0.2659473647
   11      C       2.8978336241    -1.3632828883    -0.3436586850
   12      C       3.9600524039    -0.3246906966    -0.7668131721
   13      H       4.9706318768     1.4505569413    -0.0436304469
   14      H      -1.0754622580    -3.7506000968     1.5525124442
   15      H       0.7527854664    -2.6046666691     0.3009237971
   16      H       3.5415262106    -2.6278076638    -1.9810460327
   17      C       2.5915175633    -2.2343829915    -1.5856736169
   18      C       1.6128219416    -0.6907149601     0.1637955319
   19      H       2.9426870055     2.2446361065     1.2936030523
   20      H       1.9487002578    -3.1000803481    -1.3625784166
   21      C       2.8684386530     1.5479370454     0.4423622467
   22      C       0.5004617935    -1.5418410017     0.2502419023
   23      C      -1.5531732070    -3.6696320073     0.5626652179
   24      C       1.6281505667     0.7095742462     0.6198230295
   25      H      -0.8521060014    -4.1000470896    -0.1729176323
   26      H       0.8070938815     2.1811212318     1.9200095042
   27      H      -2.4361147993    -4.3180029141     0.5778845589
   28      H       3.6530697353     0.1278765785    -1.7291603537
   29      C       0.5410947257     1.3536972014     1.2450065635
   30      H      -0.2724701995     0.7474007498     1.6550887211
   31      C      -0.8728458693    -1.2571643325     0.1363518016
   32      H       2.1126553951    -1.6394125910    -2.3811193869
   33      H       2.7133088099     2.1875195567    -0.4534226215
   34      C      -1.8831894345    -2.2440268021     0.2283132582
   35      H      -0.0722138184     2.0591436209     0.3116628707
   36      H      -1.1797455350    -0.2400254637    -0.1224235787
   37      H      -4.3230365502    -3.6461256888     0.2507567408
   38      C      -3.1998268855    -1.7992817501    -0.0081984059
   39      C      -4.3860970092    -2.5794184343     0.0317217591
   40      H      -3.3194933787    -0.7362556042    -0.2476388116
   41      C      -5.6162710278    -2.0245555332    -0.2045547811
   42      H      -6.5297289773    -2.6224684145    -0.1781710968
   43      H      -5.7294526788    -0.9589948055    -0.4254399712
 ----------------------------------------------------------------
 Molecular Point Group                 C1    NOp =  1
 Largest Abelian Subgroup              C1    NOp =  1
 Nuclear Repulsion Energy =  1677.1018271988 hartrees
 There are       82 alpha and       78 beta electrons
 Applying Cartesian multipole field
    Component          Value
    ---------          -----
     (2,0,0)        1.00000E-12
     (0,2,0)        2.00000E-11
     (0,0,2)       -3.00000E-11
 Nucleus-field energy     =     0.0000000679 hartrees
 Requested basis set is VDZ
 There are 147 shells and 231 basis functions
 A cutoff of  1.0D-12 yielded   8509 shell pairs
 There are     21005 function pairs (     21268 Cartesian)
 Smallest overlap matrix eigenvalue = 8.79E-04
 Guess MOs from SCF MO coefficient file

 -----------------------------------------------------------------------
  General SCF calculation program by
  Eric Jon Sundstrom, Paul Horn, Yuezhi Mao, Dmitri Zuev, Alec White,
  David Stuck, Shaama M.S., Shane Yost, Joonho Lee, David Small,
  Daniel Levine, Susi Lehtola, Hugh Burton, Evgeny Epifanovsky
 -----------------------------------------------------------------------
 Exchange:  B97M-V      Correlation:  B97M-V
 Using SG-2 standard quadrature grid
 Nonlocal Correlation:  rVV10 with C = 0.0100 and b = 6.00 and scale = 1.00000
 Grid used for NLC:  SG-1 standard quadrature
 using 12 threads for integral computing
 -------------------------------------------------------
 OpenMP Integral computing Module                
 Release: version 1.0, May 2013, Q-Chem Inc. Pittsburgh 
 -------------------------------------------------------
 -------------------------------------------------------
 OpenMP BLAS3 based DFT computing Module                
 Release: version 1.0, May 2013, Q-Chem Inc. Pittsburgh 
 -------------------------------------------------------
 -------------------------------------------------------
 OpenMP BLAS3 based DFT computing Module                
 Release: version 1.0, May 2013, Q-Chem Inc. Pittsburgh 
 -------------------------------------------------------
 -------------------------------------------------------
 OpenMP BLAS3 based DFT computing Module                
 Release: version 1.0, May 2013, Q-Chem Inc. Pittsburgh 
 -------------------------------------------------------
 Nonlocal correlation = 0.604814270397
 A unrestricted SCF calculation will be
 performed using DIIS, GDM
 SCF converges when RMS gradient is below 1.0e-08
 ---------------------------------------
  Cycle       Energy         DIIS error
 ---------------------------------------
 Nonlocal correlation = 6.047414348477e-01
    1   -2036.1752657421      2.23e-04  
    2   -2036.1780918508      8.69e-05  Done DIIS. Switching to GDM
 ---------------------------------------
  Cycle       Energy        RMS Gradient
 ---------------------------------------
 Nonlocal correlation = 6.048497075413e-01
    1   -2036.1780918508      1.72e-02   Normal BFGS step
 Nonlocal correlation = 6.047618175391e-01
    2   -2036.1747927918      1.35e-01  Line search: overstep
 Nonlocal correlation = 6.048036674371e-01
    3   -2036.1782818326      1.08e-02   Normal BFGS step
 Nonlocal correlation = 6.047681894447e-01
    4   -2036.1775995937      6.84e-02  Line search: overstep
 Nonlocal correlation = 6.047730544605e-01
    5   -2036.1783047672      2.20e-03   Normal BFGS step
 Nonlocal correlation = 6.047724031307e-01
    6   -2036.1783172629      1.84e-03   Normal BFGS step
 Nonlocal correlation = 6.047660144477e-01
    7   -2036.1783207979      3.74e-03   Normal BFGS step
 Nonlocal correlation = 6.047712174301e-01
    8   -2036.1783348918      1.24e-03   Normal BFGS step
 Nonlocal correlation = 6.047705786666e-01
    9   -2036.1783433887      1.17e-03   Normal BFGS step
 Nonlocal correlation = 6.047675702852e-01
   10   -2036.1783518685      6.42e-04   Normal BFGS step
 Nonlocal correlation = 6.047706715443e-01
   11   -2036.1783543029      9.28e-04   Normal BFGS step
 Nonlocal correlation = 6.047691121488e-01
   12   -2036.1783589180      2.82e-04   Normal BFGS step
 Nonlocal correlation = 6.047699380206e-01
   13   -2036.1783591847      2.29e-04   Normal BFGS step
 Nonlocal correlation = 6.047692383945e-01
   14   -2036.1783599249      2.59e-04   Normal BFGS step
 Nonlocal correlation = 6.047696417376e-01
   15   -2036.1783599329      2.88e-04   Normal BFGS step
 Nonlocal correlation = 6.047695893641e-01
   16   -2036.1783601524      1.13e-04   Normal BFGS step
 Nonlocal correlation = 6.047694884607e-01
   17   -2036.1783602313      8.76e-05   Normal BFGS step
 Nonlocal correlation = 6.047692129535e-01
   18   -2036.1783603524      9.07e-05   Normal BFGS step
 Nonlocal correlation = 6.047692996475e-01
   19   -2036.1783604484      6.71e-05   Normal BFGS step
 Nonlocal correlation = 6.047691220345e-01
   20   -2036.1783604803      5.78e-05   Normal BFGS step
 Nonlocal correlation = 6.047691541089e-01
   21   -2036.1783604973      4.94e-05   Normal BFGS step
 Nonlocal correlation = 6.047692026186e-01
   22   -2036.1783605138      2.81e-05   Normal BFGS step
 Nonlocal correlation = 6.047692640036e-01
   23   -2036.1783605238      7.21e-05   Normal BFGS step
 Nonlocal correlation = 6.047692196603e-01
   24   -2036.1783605092      4.71e-04  Line search: overstep
 Nonlocal correlation = 6.047693082263e-01
   25   -2036.1783605264      7.86e-05   Normal BFGS step
 Nonlocal correlation = 6.047691573857e-01
   26   -2036.1783605302      5.66e-05   Normal BFGS step
 Nonlocal correlation = 6.047691885112e-01
   27   -2036.1783605335      2.61e-05   Normal BFGS step
 Nonlocal correlation = 6.047691928676e-01
   28   -2036.1783605323      4.88e-05   Normal BFGS step
 Nonlocal correlation = 6.047692295598e-01
   29   -2036.1783605340      1.44e-05   Normal BFGS step
 Nonlocal correlation = 6.047691851878e-01
   30   -2036.1783605339      7.18e-06   Normal BFGS step
 Nonlocal correlation = 6.047692127494e-01
   31   -2036.1783605345      4.96e-06   Normal BFGS step
 Nonlocal correlation = 6.047692003644e-01
   32   -2036.1783605342      1.10e-05   Normal BFGS step
 Nonlocal correlation = 6.047691976946e-01
   33   -2036.1783605345      1.12e-06   Normal BFGS step
 Nonlocal correlation = 6.047691970604e-01
   34   -2036.1783605345      2.57e-06   Normal BFGS step
 Nonlocal correlation = 6.047692009393e-01
   35   -2036.1783605345      5.97e-07   Normal BFGS step
 Nonlocal correlation = 6.047691988026e-01
   36   -2036.1783605345      8.75e-07   Normal BFGS step
 Nonlocal correlation = 6.047691983074e-01
   37   -2036.1783605345      2.40e-07   Normal BFGS step
 Nonlocal correlation = 6.047691976796e-01
   38   -2036.1783605345      2.21e-07   Normal BFGS step
 Nonlocal correlation = 6.047691987947e-01
   39   -2036.1783605345      1.99e-07   Normal BFGS step
 Nonlocal correlation = 6.047691978998e-01
   40   -2036.1783605345      2.62e-07   Normal BFGS step
 Nonlocal correlation = 6.047691984607e-01
   41   -2036.1783605345      1.96e-07   Normal BFGS step
 Nonlocal correlation = 6.047691985135e-01
   42   -2036.1783605345      2.11e-07   Normal BFGS step
 Nonlocal correlation = 6.047691993616e-01
   43   -2036.1783605346      2.48e-07   Normal BFGS step
 Nonlocal correlation = 6.047692009782e-01
   44   -2036.1783605345      2.86e-06   Normal BFGS step
 Nonlocal correlation = 6.047691985021e-01
   45   -2036.1783605345      1.20e-06   Normal BFGS step
 Nonlocal correlation = 6.047691976997e-01
   46   -2036.1783605345      1.17e-06   Normal BFGS step
 Nonlocal correlation = 6.047691962879e-01
   47   -2036.1783605345      4.06e-07   Normal BFGS step
 Nonlocal correlation = 6.047691985920e-01
   48   -2036.1783605345      1.29e-06   Normal BFGS step
 Nonlocal correlation = 6.047691984288e-01
   49   -2036.1783605346      1.32e-06   Normal BFGS step
