
Running Job 1 of 1 sys_2_car_int2_diox_opt_sto3g_gga.in
qchem sys_2_car_int2_diox_opt_sto3g_gga.in_56176.0 /scr/c295_lal/157393/qchem56176/ 1
/usr/software/qchem_511/exe/qcprog.exe_s sys_2_car_int2_diox_opt_sto3g_gga.in_56176.0 /scr/c295_lal/157393/qchem56176/
Check license passed

                  Welcome to Q-Chem
     A Quantum Leap Into The Future Of Chemistry


 Q-Chem 5.1, Q-Chem, Inc., Pleasanton, CA (2018)

 Yihan Shao,  Zhengting Gan,  E. Epifanovsky,  A. T. B. Gilbert,  M. Wormit,  
 J. Kussmann,  A. W. Lange,  A. Behn,  Jia Deng,  Xintian Feng,  D. Ghosh,  
 M. Goldey,  P. R. Horn,  L. D. Jacobson,  I. Kaliman,  T. Kus,  A. Landau,  
 Jie Liu,  E. I. Proynov,  R. M. Richard,  R. P. Steele,  E. J. Sundstrom,  
 H. L. Woodcock III,  P. M. Zimmerman,  D. Zuev,  B. Albrecht,  E. Alguire,  
 S. A. Baeppler,  D. Barton,  Z. Benda,  Y. A. Bernard,  E. J. Berquist,  
 K. B. Bravaya,  H. Burton,  D. Casanova,  Chun-Min Chang,  Yunqing Chen,  
 A. Chien,  K. D. Closser,  M. P. Coons,  S. Coriani,  S. Dasgupta,  
 A. L. Dempwolff,  M. Diedenhofen,  Hainam Do,  R. G. Edgar,  Po-Tung Fang,  
 S. Faraji,  S. Fatehi,  Qingguo Feng,  K. D. Fenk,  J. Fosso-Tande,  
 Qinghui Ge,  A. Ghysels,  G. Gidofalvi,  J. Gomes,  J. Gonthier,  A. Gunina,  
 D. Hait,  M. W. D. Hanson-Heine,  P. H. P. Harbach,  A. W. Hauser,  
 J. E. Herr,  E. G. Hohenstein,  Z. C. Holden,  Kerwin Hui,  B. C. Huynh,  
 T.-C. Jagau,  Hyunjun Ji,  B. Kaduk,  K. Khistyaev,  Jaehoon Kim,  
 P. Klunzinger,  K. Koh,  D. Kosenkov,  L. Koulias,  T. Kowalczyk,  
 C. M. Krauter,  A. Kunitsa,  Ka Un Lao,  A. Laurent,  K. V. Lawler,  
 Joonho Lee,  D. Lefrancois,  S. Lehtola,  D. S. Levine,  Yi-Pei Li,  
 You-Sheng Lin,  Fenglai Liu,  E. Livshits,  A. Luenser,  P. Manohar,  
 E. Mansoor,  S. F. Manzer,  Shan-Ping Mao,  Yuezhi Mao,  N. Mardirossian,  
 A. V. Marenich,  T. Markovich,  L. A. Martinez-Martinez,  S. A. Maurer,  
 N. J. Mayhall,  S. C. McKenzie,  J.-M. Mewes,  A. F. Morrison,  
 J. W. Mullinax,  K. Nanda,  T. S. Nguyen-Beck,  R. Olivares-Amaya,  
 J. A. Parkhill,  T. M. Perrine,  F. Plasser,  P. Pokhilko,  S. Prager,  
 A. Prociuk,  E. Ramos,  D. R. Rehn,  F. Rob,  M. Schneider,  N. Sergueev,  
 S. M. Sharada,  S. Sharma,  D. W. Small,  T. Stauch,  T. Stein,  
 Yu-Chuan Su,  A. J. W. Thom,  A. Tkatchenko,  T. Tsuchimochi,  N. M. Tubman,  
 L. Vogt,  M. L. Vidal,  O. Vydrov,  M. A. Watson,  J. Wenzel,  
 M. de Wergifosse,  T. A. Wesolowski,  A. White,  J. Witte,  A. Yamada,  
 Jun Yang,  K. Yao,  S. Yeganeh,  S. R. Yost,  Zhi-Qiang You,  A. Zech,  
 Igor Ying Zhang,  Xing Zhang,  Yan Zhao,  Ying Zhu,  B. R. Brooks,  
 G. K. L. Chan,  C. J. Cramer,  M. S. Gordon,  W. J. Hehre,  A. Klamt,  
 M. W. Schmidt,  C. D. Sherrill,  D. G. Truhlar,  A. Aspuru-Guzik,  R. Baer,  
 A. T. Bell,  N. A. Besley,  Jeng-Da Chai,  A. E. DePrince, III,  
 R. A. DiStasio Jr.,  A. Dreuw,  B. D. Dunietz,  T. R. Furlani,  
 Chao-Ping Hsu,  Yousung Jung,  Jing Kong,  D. S. Lambrecht,  WanZhen Liang,  
 C. Ochsenfeld,  V. A. Rassolov,  L. V. Slipchenko,  J. E. Subotnik,  
 T. Van Voorhis,  J. M. Herbert,  A. I. Krylov,  P. M. W. Gill,  M. Head-Gordon

 Contributors to earlier versions of Q-Chem not listed above: 
 R. D. Adamson,  B. Austin,  J. Baker,  G. J. O. Beran,  K. Brandhorst,  
 S. T. Brown,  E. F. C. Byrd,  A. K. Chakraborty,  C.-L. Cheng,  
 Siu Hung Chien,  D. M. Chipman,  D. L. Crittenden,  H. Dachsel,  
 R. J. Doerksen,  A. D. Dutoi,  L. Fusti-Molnar,  W. A. Goddard III,  
 A. Golubeva-Zadorozhnaya,  S. R. Gwaltney,  G. Hawkins,  A. Heyden,  
 S. Hirata,  G. Kedziora,  F. J. Keil,  C. Kelley,  Jihan Kim,  R. A. King,  
 R. Z. Khaliullin,  P. P. Korambath,  W. Kurlancheek,  A. M. Lee,  M. S. Lee,  
 S. V. Levchenko,  Ching Yeh Lin,  D. Liotard,  R. C. Lochan,  I. Lotan,  
 P. E. Maslen,  N. Nair,  D. P. O'Neill,  D. Neuhauser,  E. Neuscamman,  
 C. M. Oana,  R. Olson,  B. Peters,  R. Peverati,  P. A. Pieniazek,  
 Y. M. Rhee,  J. Ritchie,  M. A. Rohrdanz,  E. Rosta,  N. J. Russ,  
 H. F. Schaefer III,  N. E. Schultz,  N. Shenvi,  A. C. Simmonett,  A. Sodt,  
 D. Stuck,  K. S. Thanthiriwatte,  V. Vanovschi,  Tao Wang,  A. Warshel,  
 C. F. Williams,  Q. Wu,  X. Xu,  W. Zhang

 Please cite Q-Chem as follows:
 Y. Shao et al., Mol. Phys. 113, 184-215 (2015)
 DOI: 10.1080/00268976.2014.952696

 Q-Chem 5.1.1 for Intel X86 EM64T Linux

 Parts of Q-Chem use Armadillo 8.300.2 (Tropical Shenanigans).
 http://arma.sourceforge.net/

 Q-Chem begins on Wed Nov 28 12:05:00 2018  

Host: compute-0-12.local
0

     Scratch files written to /scr/c295_lal/157393/qchem56176//
 Aug318 |scratch|qcdevops|jenkins|workspace|build_RNUM -1
Processing $rem in /usr/software/qchem_511/config/preferences.
 MEM_TOTAL  2000 
Input Ideriv = 2
Curr. Ideriv = -1
Max.  Ideriv = 2

Checking the input file for inconsistencies... 	...done.

--------------------------------------------------------------
User input:
--------------------------------------------------------------
$molecule
1 5
Fe        -1.43864       -2.96430        2.23396
O         -1.74302       -1.64056        1.45548
O         -1.44035       -0.24074        1.79786
H          2.37381        2.77406       -0.19332
H          2.59922        2.99747        1.57672
C          2.03387        2.43600        0.80611
H          0.96266        2.69611        0.91446
H          4.32172        1.78548       -0.80961
H          4.32790        1.34859        1.73210
C          4.51529        0.77639       -0.38784
C          2.29995        0.88197        1.01616
C          3.86964        0.62416        1.02635
H          5.61614        0.63915       -0.32621
H         -2.64402       -1.21071       -0.74944
H          2.31222        0.94976        3.22171
C          1.75441        0.40891        2.43133
C          1.60333        0.05150       -0.15164
H          4.18367       -0.15340       -2.41372
H          0.67736        0.61901        2.56942
C          3.92705       -0.31822       -1.33605
C          0.20104       -0.13078       -0.27835
C         -2.78969       -0.21542       -1.22074
C          2.41459       -0.54757       -1.23729
H         -2.32017       -0.23438       -2.23065
H          1.46990       -0.73527       -3.18761
H         -3.87674       -0.05195       -1.35786
H          4.07289       -0.39734        1.41510
C          1.83517       -1.41453       -2.37659
H          0.99493       -2.06445       -2.05885
C         -0.92392        0.57107        0.49634
H          1.92941       -0.67748        2.56934
H          4.38088       -1.32119       -1.09010
C         -2.17486        0.89390       -0.33943
H          2.64108       -2.04058       -2.81356
H         -4.46353        2.01322       -1.57518
C         -2.72356        2.18322       -0.19791
C         -3.91835        2.68518       -0.88245
H         -2.21187        2.90153        0.47954
C         -4.38141        3.97974       -0.68279
H         -5.29074        4.35112       -1.20202
H         -3.86437        4.68745        0.00024
H         -0.55501        1.47752        1.03715
O         -0.00642        0.08197       -1.30626
H          0.12553       -1.09752        0.17398
H          0.13325        1.02683       -1.47545
$end

$rem
BASIS = STO-3G
METHOD  = BLYP
JOBTYPE = OPT
MAX_SCF_CYCLES = 500
SCF_ALGORITHM = DIIS_GDM
$end
--------------------------------------------------------------
 ----------------------------------------------------------------
             Standard Nuclear Orientation (Angstroms)
    I     Atom           X                Y                Z
 ----------------------------------------------------------------
    1      Fe     -1.2369863608    -3.6513857086     0.1522752121
    2      O      -1.6294915642    -2.1378851420     0.0733982033
    3      O      -1.4816731534    -1.0604729021     1.0662032237
    4      H       2.1156988536     2.7682650682     1.1024459587
    5      H       2.2300816008     2.1248734887     2.7777749295
    6      C       1.7609691011     1.9704901548     1.7853998974
    7      H       0.6654977877     2.0799440229     1.9072615030
    8      H       4.1786658682     2.3204333916     0.2687367560
    9      H       4.1009409195     0.7146697593     2.2853385456
   10      C       4.4481755138     1.2470108249     0.1751929151
   11      C       2.1660323865     0.5270990792     1.2539163629
   12      C       3.7508906820     0.3931582494     1.2818549657
   13      H       5.5527219065     1.1649203789     0.2631828116
   14      H      -2.4572949633    -0.7554142948    -1.7326361589
   15      H       2.0620260380    -0.4751823748     3.2170290458
   16      C       1.5993873160    -0.6015544616     2.2178459937
   17      C       1.6123144289     0.3208006257    -0.2257978180
   18      H       4.3095747840     1.3895813661    -2.0696087513
   19      H       0.5014925251    -0.5505026365     2.3414109558
   20      C       4.0169441852     0.7106852070    -1.2282649313
   21      C       0.2424126716     0.1364057088    -0.5499372270
   22      C      -2.6753881342     0.3327402455    -1.6846706680
   23      C       2.5308988029     0.3697817790    -1.3874635055
   24      H      -2.1566383713     0.8314049842    -2.5349405557
   25      H       1.7070230696     1.0870733025    -3.2684579858
   26      H      -3.7650140214     0.4749679082    -1.8249872946
   27      H       4.0328695239    -0.6746151405     1.1543900864
   28      C       2.0958101101     0.1250501117    -2.8490229153
   29      H       1.3079541364    -0.6477311531    -2.9560278362
   30      C      -0.9825304908     0.3077942535     0.3602348643
   31      H       1.8720523475    -1.6070212441     1.8375759289
   32      H       4.5533024711    -0.2567290981    -1.4492428573
   33      C      -2.2158301814     0.9157798496    -0.3303496516
   34      H       2.9794589021    -0.1623184370    -3.4564407627
   35      H      -4.5381798322     2.3490204845    -1.0856503040
   36      C      -2.8935748688     1.9410779481     0.3573069564
   37      C      -4.0959830359     2.6362682649    -0.1106749028
   38      H      -2.4884126249     2.2741494447     1.3379400932
   39      C      -4.6919981129     3.6434008636     0.6380735392
   40      H      -5.6061785317     4.1623369325     0.2783744088
   41      H      -4.2807651051     3.9648464951     1.6190291478
   42      H      -0.7307866861     0.8623885979     1.2979298130
   43      O       0.0666051957     0.8047507634    -1.3668263270
   44      H       0.2388157175    -0.9312292882    -0.6208808082
   45      H       0.1220329942     1.7208224871    -1.0527662360
 ----------------------------------------------------------------
 Molecular Point Group                 C1    NOp =  1
 Largest Abelian Subgroup              C1    NOp =  1
 Nuclear Repulsion Energy =  1970.9840153354 hartrees
 There are       87 alpha and       83 beta electrons
 Requested basis set is STO-3G
 There are 68 shells and 138 basis functions

 Total QAlloc Memory Limit   2000 MB
 Mega-Array Size       188 MB
 MEM_STATIC part       192 MB
 A cutoff of  1.0D-12 yielded   1803 shell pairs
 There are      8070 function pairs (      8165 Cartesian)
 
 -------------------------------------------------------
 OpenMP Integral Computing Module                       
 Release: version 1.0, May 2013, Q-Chem Inc. Pittsburgh 
 -------------------------------------------------------
 Integral Job Info:
 Integral job number is                      11
 Integral operator is                         1
 short-range coefficients                     0
 long-range coefficients              100000000
 Omega coefficients                           0
 if combine SR and LR in K                    0
 Integral screening is                        0
 Integral computing path is                   2
 max size of driver memory is            800000
 size of driver memory is                593474
 size of scratch memory is             10861360
 max col of scratch BK array               1296
 max len of scratch array in speh3          155
 max len of scratch index in speh4           18
 max int batch size is                      520
 min int batch size is                       52
 fixed nKL is                                52
 max L of basis functions is                  2
 order of int derivative is                   0
 number of shells is                         68
 number of basis is                         139
 number of cartesian basis is               139
 number of contracted shell pairs          1803
 number of primitive shell pairs           9578
 maxK2 (contraction) of shell pair            9
 max number of K2 of shell pair               1
 max number of CS2 of shell pair            248
 max number of PS2 of shell pair           1092
 mem total for path MDJ                  535970
 -------------------------------------------------------
 Smallest overlap matrix eigenvalue = 1.36E-01

 Scale SEOQF with 1.000000e-02/1.000000e-01/1.000000e-01

 Standard Electronic Orientation quadrupole field applied
 Nucleus-field energy     =     0.0000000215 hartrees
 Guess from superposition of atomic densities
 Warning:  Energy on first SCF cycle will be non-variational
 SAD guess density has 171.000000 electrons

 -----------------------------------------------------------------------
  General SCF calculation program by
  Eric Jon Sundstrom, Paul Horn, Yuezhi Mao, Dmitri Zuev, Alec White,
  David Stuck, Shaama M.S., Shane Yost, Joonho Lee, David Small,
  Daniel Levine, Susi Lehtola, Hugh Burton, Evgeny Epifanovsky
 -----------------------------------------------------------------------
 Exchange:  B88      Correlation:  LYP
 Using SG-1 standard quadrature grid
 using 12 threads for integral computing
 -------------------------------------------------------
 OpenMP Integral computing Module                
 Release: version 1.0, May 2013, Q-Chem Inc. Pittsburgh 
 -------------------------------------------------------
 -------------------------------------------------------
 OpenMP BLAS3 based DFT computing Module                
 Release: version 1.0, May 2013, Q-Chem Inc. Pittsburgh 
 -------------------------------------------------------
 A unrestricted SCF calculation will be
 performed using DIIS, GDM
 SCF converges when RMS gradient is below 1.0e-08
 ---------------------------------------
  Cycle       Energy         DIIS error
 ---------------------------------------
    1   -2087.2617423224      4.23e-02  
    2   -2086.3228737543      1.44e-02  
    3   -2067.0845604667      2.74e-02  
    4   -2073.7050697691      2.05e-02  
    5   -2076.1495211571      1.89e-02  
    6   -2071.3804076077      1.90e-02  
    7   -2087.5750373100      7.98e-03  Done DIIS. Switching to GDM
 ---------------------------------------
  Cycle       Energy        RMS Gradient
 ---------------------------------------
    1   -2087.5750373100      1.20e+00   Descent step
    2   -2088.1583162993      5.82e-01   Descent step
    3   -2088.4298005412      1.79e-01   Descent step
    4   -2088.5244319032      1.28e-01   Descent step
    5   -2088.2777459826      6.30e-01  Line search: overstep
    6   -2088.5459868864      7.48e-02   Dog-leg BFGS step
    7   -2088.5778872774      1.72e-01   Descent step
    8   -2088.4455837414      5.79e-01  Line search: overstep
    9   -2088.6183299917      1.25e-01   Descent step
   10   -2088.4557824674      4.09e-01  Line search: overstep
   11   -2088.6300322015      2.08e-01   Descent step
   12   -2088.1385084509      1.07e+00  Line search: overstep
   13   -2088.6410789192      9.10e-02   Dog-leg BFGS step
   14   -2088.6766177928      1.64e-01   Descent step
   15   -2088.3577680962      7.73e-01  Line search: overstep
   16   -2088.6910531396      1.30e-01   Dog-leg BFGS step
   17   -2088.7015652418      1.27e-01   Normal BFGS step
   18   -2088.7172177082      8.39e-02   Normal BFGS step
   19   -2088.7189382125      7.67e-02   Normal BFGS step
   20   -2088.7307010041      5.43e-02   Normal BFGS step
   21   -2088.7320898478      4.97e-02   Normal BFGS step
   22   -2088.7344725147      6.54e-02   Normal BFGS step
   23   -2088.7338988045      6.65e-02  Line search: overstep
   24   -2088.7365400678      1.65e-02   Normal BFGS step
   25   -2088.7363162968      3.58e-02  Line search: overstep
   26   -2088.7373064581      1.40e-02   Normal BFGS step
   27   -2088.7370759290      2.20e-02  Line search: overstep
   28   -2088.7375045532      5.82e-03   Normal BFGS step
   29   -2088.7375669243      3.64e-03   Normal BFGS step
   30   -2088.7376230424      2.43e-03   Normal BFGS step
   31   -2088.7376095560      4.54e-03  Line search: overstep
   32   -2088.7376358278      1.40e-03   Normal BFGS step
   33   -2088.7376373696      1.87e-03   Normal BFGS step
   34   -2088.7376403019      8.88e-04   Normal BFGS step
   35   -2088.7376410809      6.75e-04   Normal BFGS step
   36   -2088.7376416958      4.11e-04   Normal BFGS step
   37   -2088.7376420334      3.43e-04   Normal BFGS step
   38   -2088.7376420650      2.68e-04   Normal BFGS step
   39   -2088.7376422180      1.20e-04   Normal BFGS step
   40   -2088.7376422358      9.32e-05   Normal BFGS step
   41   -2088.7376422696      3.92e-05   Normal BFGS step
   42   -2088.7376422695      3.58e-05   Normal BFGS step
   43   -2088.7376422738      1.22e-05   Normal BFGS step
   44   -2088.7376422734      1.38e-05   Normal BFGS step
   45   -2088.7376422743      2.76e-06   Normal BFGS step
   46   -2088.7376422743      3.54e-06   Normal BFGS step
   47   -2088.7376422743      3.48e-06   Normal BFGS step
   48   -2088.7376422743      7.98e-06   Normal BFGS step
   49   -2088.7376422743      7.88e-07   Normal BFGS step
   50   -2088.7376422743      1.14e-06   Normal BFGS step
   51   -2088.7376422743      5.20e-07   Normal BFGS step
   52   -2088.7376422743      9.00e-07   Normal BFGS step
   53   -2088.7376422743      1.70e-07   Normal BFGS step
   54   -2088.7376422743      2.62e-07   Normal BFGS step
   55   -2088.7376422743      7.55e-08   Normal BFGS step
   56   -2088.7376422743      2.40e-07   Normal BFGS step
   57   -2088.7376422743      3.82e-08   Normal BFGS step
   58   -2088.7376422743      8.47e-08   Normal BFGS step
   59   -2088.7376422743      2.13e-08   Normal BFGS step
   60   -2088.7376422743      4.67e-08   Normal BFGS step
   61   -2088.7376422743      3.05e-09  Convergence criterion met
 ---------------------------------------
 SCF time:   CPU 862.71s  wall 74.00s 
<S^2> =          6.598862014
 SCF   energy in the final basis set =    -2088.7376422743
 Total energy in the final basis set =    -2088.7376422743
 
 --------------------------------------------------------------
 
                    Orbital Energies (a.u.)
 --------------------------------------------------------------
 
 Alpha MOs
 -- Occupied --
******* -29.497 -26.051 -26.050 -26.046 -18.815 -18.800 -18.793
-10.032  -9.952  -9.898  -9.894  -9.894  -9.890  -9.883  -9.880
 -9.880  -9.878  -9.875  -9.866  -9.864  -9.863  -9.862  -9.860
 -3.689  -2.530  -2.527  -2.519  -1.248  -1.119  -0.931  -0.836
 -0.823  -0.786  -0.782  -0.768  -0.741  -0.722  -0.707  -0.692
 -0.691  -0.676  -0.633  -0.617  -0.596  -0.579  -0.574  -0.566
 -0.557  -0.522  -0.508  -0.499  -0.485  -0.472  -0.466  -0.464
 -0.457  -0.453  -0.447  -0.445  -0.439  -0.433  -0.427  -0.426
 -0.420  -0.415  -0.409  -0.402  -0.396  -0.383  -0.380  -0.379
 -0.376  -0.357  -0.357  -0.354  -0.349  -0.348  -0.343  -0.340
 -0.333  -0.317  -0.305  -0.281  -0.274  -0.258  -0.239
 -- Virtual --
 -0.234  -0.156  -0.119  -0.115  -0.079  -0.074  -0.016   0.017
  0.048   0.096   0.133   0.135   0.161   0.169   0.177   0.181
  0.187   0.191   0.199   0.218   0.225   0.227   0.239   0.247
  0.251   0.261   0.267   0.272   0.277   0.279   0.284   0.286
  0.294   0.300   0.306   0.307   0.308   0.319   0.325   0.326
  0.337   0.349   0.356   0.369   0.376   0.394   0.423   0.442
  0.470   0.514   0.692
 
 Beta MOs
 -- Occupied --
******* -29.459 -26.019 -26.018 -26.017 -18.815 -18.802 -18.795
-10.032  -9.952  -9.898  -9.895  -9.895  -9.890  -9.883  -9.880
 -9.879  -9.879  -9.875  -9.866  -9.865  -9.863  -9.862  -9.860
 -3.489  -2.340  -2.321  -2.317  -1.252  -1.120  -0.931  -0.839
 -0.824  -0.788  -0.783  -0.768  -0.742  -0.722  -0.709  -0.693
 -0.692  -0.676  -0.634  -0.618  -0.593  -0.581  -0.575  -0.566
 -0.558  -0.519  -0.508  -0.499  -0.479  -0.473  -0.466  -0.465
 -0.454  -0.449  -0.447  -0.443  -0.439  -0.433  -0.426  -0.426
 -0.419  -0.414  -0.407  -0.402  -0.386  -0.383  -0.381  -0.377
 -0.369  -0.349  -0.349  -0.343  -0.333  -0.319  -0.301  -0.287
 -0.285  -0.256  -0.249
 -- Virtual --
 -0.189  -0.156  -0.155  -0.153  -0.152  -0.136  -0.120  -0.093
 -0.091  -0.056  -0.015   0.016   0.050   0.124   0.131   0.136
  0.161   0.167   0.176   0.180   0.186   0.191   0.199   0.218
  0.224   0.227   0.238   0.246   0.250   0.260   0.267   0.271
  0.277   0.278   0.283   0.285   0.294   0.300   0.306   0.306
  0.308   0.319   0.325   0.326   0.337   0.349   0.356   0.368
  0.375   0.394   0.420   0.440   0.470   0.513   0.690
 --------------------------------------------------------------
 
          Ground-State Mulliken Net Atomic Charges

     Atom                 Charge (a.u.)    Spin (a.u.)
  --------------------------------------------------------
      1 Fe                    0.421142       4.595164
      2 O                    -0.204429      -0.101861
      3 O                     0.017760      -0.037495
      4 H                     0.077964       0.000218
      5 H                     0.092232      -0.000311
      6 C                    -0.216953      -0.005448
      7 H                     0.061074       0.000113
      8 H                     0.077016      -0.000089
      9 H                     0.082285      -0.000538
     10 C                    -0.129112      -0.000645
     11 C                     0.024484       0.003206
     12 C                    -0.127810      -0.001684
     13 H                     0.090558       0.000110
     14 H                     0.083676      -0.000737
     15 H                     0.090207      -0.000283
     16 C                    -0.217496      -0.003607
     17 C                    -0.011248      -0.106487
     18 H                     0.094280      -0.005744
     19 H                     0.065570       0.000185
     20 C                    -0.133701       0.006383
     21 C                     0.084726       0.006812
     22 C                    -0.221423       0.000446
     23 C                     0.034584      -0.144356
     24 H                     0.098476      -0.001049
     25 H                     0.097571      -0.006334
     26 H                     0.097547       0.000017
     27 H                     0.076283       0.000115
     28 C                    -0.220720       0.007776
     29 H                     0.090136      -0.003604
     30 C                    -0.009201      -0.013417
     31 H                     0.076161       0.000154
     32 H                     0.094252      -0.010117
     33 C                    -0.009784      -0.024680
     34 H                     0.098272      -0.000268
     35 H                     0.096046       0.000011
     36 C                    -0.059152      -0.016048
     37 C                    -0.070426       0.000035
     38 H                     0.087039       0.000538
     39 C                    -0.108104      -0.041551
     40 H                     0.105742       0.001638
     41 H                     0.096027       0.001675
     42 H                     0.105338       0.000445
     43 O                    -0.277148      -0.094807
     44 H                     0.113531      -0.006090
     45 H                     0.286725       0.002208
  --------------------------------------------------------
  Sum of atomic charges =     1.000000
  Sum of spin   charges =     4.000000

 -----------------------------------------------------------------
                    Cartesian Multipole Moments
 -----------------------------------------------------------------
    Charge (ESU x 10^10)
                 4.8032
    Dipole Moment (Debye)
         X      -1.3875      Y       1.4447      Z      -0.6573
       Tot       2.1082
    Quadrupole Moments (Debye-Ang)
        XX     -87.8916     XY      -3.0635     YY     -99.1793
        XZ      -2.6156     YZ       0.8159     ZZ    -114.0100
    Octopole Moments (Debye-Ang^2)
       XXX     -46.2133    XXY      43.9519    XYY     -67.7879
       YYY     -31.2879    XXZ     -14.5108    XYZ      -6.9570
       YYZ       7.9909    XZZ       3.9649    YZZ      -5.8349
       ZZZ      -3.9270
    Hexadecapole Moments (Debye-Ang^3)
      XXXX   -4581.7973   XXXY    -181.5407   XXYY   -1081.0902
      XYYY     -11.6968   YYYY   -2753.9844   XXXZ     -25.2155
      XXYZ      14.3078   XYYZ     -39.8122   YYYZ       0.4166
      XXZZ   -1015.2348   XYZZ      20.5693   YYZZ    -683.8160
      XZZZ     -24.3883   YZZZ     -11.2242   ZZZZ   -1312.2497
 -----------------------------------------------------------------
 Calculating analytic gradient of the SCF energy
 Gradient of SCF Energy
            1           2           3           4           5           6
    1  -0.0037889   0.0017347  -0.0018370  -0.0006647   0.0007770  -0.0006702
    2   0.0123505  -0.0051889  -0.0275208   0.0005653  -0.0012627   0.0009901
    3   0.0058062  -0.0009734  -0.0049070   0.0000165  -0.0001676  -0.0025701
            7           8           9          10          11          12
    1   0.0002854   0.0000705  -0.0010654   0.0002074  -0.0033391   0.0005014
    2   0.0000245   0.0004386   0.0004326  -0.0004974   0.0022301  -0.0027855
    3  -0.0003269  -0.0010982  -0.0007614   0.0037907   0.0119266  -0.0029501
           13          14          15          16          17          18
    1   0.0000896  -0.0000498   0.0002120  -0.0004604  -0.1902635   0.0003746
    2  -0.0004027  -0.0007627   0.0005979  -0.0016731  -0.0107715  -0.0014161
    3  -0.0010490   0.0004664  -0.0003986  -0.0011190  -0.0441426  -0.0054320
           19          20          21          22          23          24
    1   0.0004291  -0.0099559  -0.0788120   0.0019741   0.0419922  -0.0000313
    2   0.0006487   0.0127706   0.4773196  -0.0004841  -0.0009009   0.0018371
    3  -0.0000321   0.0094573  -0.5634266   0.0030922  -0.0559901  -0.0008363
           25          26          27          28          29          30
    1  -0.0002688   0.0002106   0.0004526   0.0012171   0.0002626   0.0568430
    2   0.0054066   0.0005686  -0.0001348  -0.0071967  -0.0001069   0.0293626
    3   0.0017103  -0.0006082   0.0005151   0.0039445  -0.0005712  -0.0945632
           31          32          33          34          35          36
    1   0.0002588  -0.0014453   0.0062947   0.0008629  -0.0009776  -0.0144945
    2  -0.0003970  -0.0058809  -0.0160892   0.0016765  -0.0000316   0.0197660
    3   0.0000638  -0.0031737  -0.0099385  -0.0007549  -0.0011063   0.0085526
           37          38          39          40          41          42
    1   0.0141785   0.0004116  -0.0057675  -0.0026484   0.0009176   0.0051049
    2  -0.0192985   0.0006558   0.0116850   0.0015542   0.0008983  -0.0016417
    3  -0.0102500   0.0012476   0.0106502  -0.0014746   0.0027535  -0.0007125
           43          44          45
    1   0.1710340   0.0139859  -0.0041426
    2  -0.4772763   0.0583111  -0.0583703
    3   0.6997164   0.0380221   0.0076023
 Max gradient component =       6.997E-01
 RMS gradient           =       1.006E-01
 Gradient time:  CPU 46.19 s  wall 4.57 s
 Geometry Optimization Parameters
   NAtoms,    NIC,     NZ,  NCons,   NDum,   NFix, NCnnct, MaxDiis
       45     329       0       0       0       0       0       0


** GEOMETRY OPTIMIZATION IN DELOCALIZED INTERNAL COORDINATES **
   Searching for a Minimum

   Optimization Cycle:   1

                       Coordinates (Angstroms)
     ATOM                X               Y               Z
      1  Fe       -1.2369863608   -3.6513857086    0.1522752121
      2  O        -1.6294915642   -2.1378851420    0.0733982033
      3  O        -1.4816731534   -1.0604729021    1.0662032237
      4  H         2.1156988536    2.7682650682    1.1024459587
      5  H         2.2300816008    2.1248734887    2.7777749295
      6  C         1.7609691011    1.9704901548    1.7853998974
      7  H         0.6654977877    2.0799440229    1.9072615030
      8  H         4.1786658682    2.3204333916    0.2687367560
      9  H         4.1009409195    0.7146697593    2.2853385456
     10  C         4.4481755138    1.2470108249    0.1751929151
     11  C         2.1660323865    0.5270990792    1.2539163629
     12  C         3.7508906820    0.3931582494    1.2818549657
     13  H         5.5527219065    1.1649203789    0.2631828116
     14  H        -2.4572949633   -0.7554142948   -1.7326361589
     15  H         2.0620260380   -0.4751823748    3.2170290458
     16  C         1.5993873160   -0.6015544616    2.2178459937
     17  C         1.6123144289    0.3208006257   -0.2257978180
     18  H         4.3095747840    1.3895813661   -2.0696087513
     19  H         0.5014925251   -0.5505026365    2.3414109558
     20  C         4.0169441852    0.7106852070   -1.2282649313
     21  C         0.2424126716    0.1364057088   -0.5499372270
     22  C        -2.6753881342    0.3327402455   -1.6846706680
     23  C         2.5308988029    0.3697817790   -1.3874635055
     24  H        -2.1566383713    0.8314049842   -2.5349405557
     25  H         1.7070230696    1.0870733025   -3.2684579858
     26  H        -3.7650140214    0.4749679082   -1.8249872946
     27  H         4.0328695239   -0.6746151405    1.1543900864
     28  C         2.0958101101    0.1250501117   -2.8490229153
     29  H         1.3079541364   -0.6477311531   -2.9560278362
     30  C        -0.9825304908    0.3077942535    0.3602348643
     31  H         1.8720523475   -1.6070212441    1.8375759289
     32  H         4.5533024711   -0.2567290981   -1.4492428573
     33  C        -2.2158301814    0.9157798496   -0.3303496516
     34  H         2.9794589021   -0.1623184370   -3.4564407627
     35  H        -4.5381798322    2.3490204845   -1.0856503040
     36  C        -2.8935748688    1.9410779481    0.3573069564
     37  C        -4.0959830359    2.6362682649   -0.1106749028
     38  H        -2.4884126249    2.2741494447    1.3379400932
     39  C        -4.6919981129    3.6434008636    0.6380735392
     40  H        -5.6061785317    4.1623369325    0.2783744088
     41  H        -4.2807651051    3.9648464951    1.6190291478
     42  H        -0.7307866861    0.8623885979    1.2979298130
     43  O         0.0666051957    0.8047507634   -1.3668263270
     44  H         0.2388157175   -0.9312292882   -0.6208808082
     45  H         0.1220329942    1.7208224871   -1.0527662360
   Point Group: c1    Number of degrees of freedom:   129


   Energy is  -2088.737642274


 Attempting to Generate Delocalized Internal Coordinates

129 Hessian modes will be used to form the next step
  Hessian Eigenvalues:
     0.002000    0.002000    0.002000    0.002000    0.003141    0.003298
     0.003299    0.004060    0.004461    0.004467    0.005606    0.007236
     0.008224    0.009785    0.013725    0.017593    0.018791    0.019794
     0.021302    0.023821    0.023821    0.025971    0.029016    0.039838
     0.040428    0.042820    0.047155    0.047542    0.048273    0.048654
     0.050273    0.052410    0.052588    0.055876    0.056506    0.057165
     0.059298    0.059781    0.067033    0.068438    0.069922    0.070518
     0.074013    0.076177    0.077924    0.082296    0.088328    0.097539
     0.100506    0.101375    0.121829    0.132885    0.158227    0.159993
     0.160000    0.160000    0.160000    0.160000    0.160000    0.160000
     0.160000    0.160000    0.160000    0.160000    0.160000    0.160000
     0.160000    0.160000    0.160000    0.160000    0.184667    0.188232
     0.200482    0.200690    0.207859    0.220000    0.220002    0.225100
     0.225562    0.242240    0.244701    0.245268    0.246029    0.249641
     0.249668    0.249779    0.249910    0.250000    0.250000    0.258043
     0.262978    0.281276    0.281287    0.285543    0.286349    0.289062
     0.307654    0.315641    0.316468    0.317539    0.321927    0.323802
     0.324196    0.324757    0.324857    0.324904    0.325122    0.325276
     0.325627    0.325870    0.327045    0.327312    0.327624    0.327626
     0.327664    0.327786    0.328350    0.328501    0.330267    0.336194
     0.354397    0.362679    0.372307    0.424976    0.442645    0.474395
     0.533776    0.585002    2.107750

 Minimum Search - Taking Simple RFO Step
 Searching for Lamda that Minimizes Along All modes
 Value Taken    Lamda =  -0.41450274
 Calculated Step too Large.  Step scaled by  0.593165
 Step Taken.  Stepsize is  0.300000

                             Maximum     Tolerance    Cnvgd?
         Gradient           0.409317      0.000300      NO
         Displacement       0.111788      0.001200      NO
         Energy change     *********      0.000001      NO


 New Cartesian Coordinates Obtained by Inverse Iteration

 Displacement from previous Coordinates is:  1.136162
 ----------------------------------------------------------------
             Standard Nuclear Orientation (Angstroms)
    I     Atom           X                Y                Z
 ----------------------------------------------------------------
    1      Fe     -1.2528441178    -3.6422812905     0.1302426179
    2      O      -1.6474027592    -2.1236607984     0.0916791270
    3      O      -1.4637427276    -1.0443725199     1.0814979604
    4      H       2.1125631532     2.7734693151     1.0683597333
    5      H       2.1753536651     2.1413697001     2.7502364952
    6      C       1.7381874798     1.9790911610     1.7446221907
    7      H       0.6391221291     2.0866705192     1.8322035379
    8      H       4.1951565710     2.3267819234     0.3011976887
    9      H       4.0647220153     0.7315625682     2.3235058741
   10      C       4.4705179612     1.2538586044     0.2215553483
   11      C       2.1624038305     0.5339466301     1.2322438058
   12      C       3.7451656762     0.4042717279     1.3113302939
   13      H       5.5724110820     1.1766296038     0.3412910766
   14      H      -2.5464771423    -0.7755695187    -1.6839579092
   15      H       1.9995590081    -0.4594555976     3.1971537073
   16      C       1.5686082025    -0.5910054766     2.1844668427
   17      C       1.6535990201     0.3183931832    -0.2614564339
   18      H       4.3901498933     1.3792661136    -2.0229182328
   19      H       0.4671382340    -0.5425059041     2.2740973747
   20      C       4.0773485997     0.7049748535    -1.1870449019
   21      C       0.2314564372     0.1183266852    -0.6412492948
   22      C      -2.7589588667     0.3135363239    -1.6395702190
   23      C       2.5908081534     0.3610810226    -1.3779122133
   24      H      -2.2710082089     0.7997308005    -2.5141442073
   25      H       1.8121736764     1.0559455429    -3.2929418291
   26      H      -3.8527224804     0.4579850471    -1.7399127632
   27      H       4.0334625309    -0.6633146248     1.1978991324
   28      C       2.1921582066     0.1031378183    -2.8497635397
   29      H       1.4084151403    -0.6723548224    -2.9670604951
   30      C      -0.9903249829     0.3054750912     0.3436845348
   31      H       1.8550008803    -1.5974411576     1.8175771579
   32      H       4.6235088895    -0.2595436620    -1.3843540216
   33      C      -2.2465838290     0.9098529381    -0.3086733359
   34      H       3.0907708729    -0.1906125807    -3.4311007078
   35      H      -4.5894660395     2.3395762100    -0.9965330940
   36      C      -2.8924367113     1.9392755113     0.3883272072
   37      C      -4.1114704633     2.6360328629    -0.0420804959
   38      H      -2.4501005283     2.2807668125     1.3491000855
   39      C      -4.6746549046     3.6482995464     0.7121263281
   40      H      -5.5988025281     4.1653374757     0.3807066668
   41      H      -4.2275643245     3.9790676731     1.6726224519
   42      H      -0.7051461915     0.8692136200     1.2663658269
   43      O       0.0181347727     0.8229093401    -1.5663322073
   44      H       0.2222362253    -0.9733041818    -0.7160704070
   45      H       0.0634983006     1.7795360703    -1.3255421365
 ----------------------------------------------------------------
 Molecular Point Group                 C1    NOp =  1
 Largest Abelian Subgroup              C1    NOp =  1
 Nuclear Repulsion Energy =  1959.1555412406 hartrees
 There are       87 alpha and       83 beta electrons
 Applying Cartesian multipole field
    Component          Value
    ---------          -----
     (2,0,0)        1.00000E-12
     (0,2,0)        2.00000E-11
     (0,0,2)       -3.00000E-11
 Nucleus-field energy     =     0.0000000212 hartrees
 Requested basis set is STO-3G
 There are 68 shells and 138 basis functions
 A cutoff of  1.0D-12 yielded   1796 shell pairs
 There are      8054 function pairs (      8149 Cartesian)
 Smallest overlap matrix eigenvalue = 1.87E-01
 Guess MOs from SCF MO coefficient file

 -----------------------------------------------------------------------
  General SCF calculation program by
  Eric Jon Sundstrom, Paul Horn, Yuezhi Mao, Dmitri Zuev, Alec White,
  David Stuck, Shaama M.S., Shane Yost, Joonho Lee, David Small,
  Daniel Levine, Susi Lehtola, Hugh Burton, Evgeny Epifanovsky
 -----------------------------------------------------------------------
 Exchange:  B88      Correlation:  LYP
 Using SG-1 standard quadrature grid
 using 12 threads for integral computing
 -------------------------------------------------------
 OpenMP Integral computing Module                
 Release: version 1.0, May 2013, Q-Chem Inc. Pittsburgh 
 -------------------------------------------------------
 -------------------------------------------------------
 OpenMP BLAS3 based DFT computing Module                
 Release: version 1.0, May 2013, Q-Chem Inc. Pittsburgh 
 -------------------------------------------------------
 A unrestricted SCF calculation will be
 performed using DIIS, GDM
 SCF converges when RMS gradient is below 1.0e-08
 ---------------------------------------
  Cycle       Energy         DIIS error
 ---------------------------------------
    1   -2088.9036656264      8.82e-04  
    2   -2088.9140835143      2.98e-04  Done DIIS. Switching to GDM
 ---------------------------------------
  Cycle       Energy        RMS Gradient
 ---------------------------------------
    1   -2088.9140835143      3.55e-02   Normal BFGS step
    2   -2088.9081111950      7.50e-02  Line search: overstep
    3   -2088.9154621020      8.23e-03   Normal BFGS step
    4   -2088.9150959620      2.11e-02  Line search: overstep
    5   -2088.9155377766      3.69e-03   Normal BFGS step
    6   -2088.9155231793      7.43e-03  Line search: overstep
    7   -2088.9155668629      2.43e-03   Normal BFGS step
    8   -2088.9155318847      6.07e-03  Line search: overstep
    9   -2088.9155784047      7.16e-04   Normal BFGS step
   10   -2088.9155809862      5.19e-04   Normal BFGS step
   11   -2088.9155810373      9.18e-04   Normal BFGS step
   12   -2088.9155816644      4.39e-04   Normal BFGS step
   13   -2088.9155818421      4.15e-04   Normal BFGS step
   14   -2088.9155819239      5.26e-04   Normal BFGS step
   15   -2088.9155820113      3.68e-04   Normal BFGS step
   16   -2088.9155820861      2.05e-04   Normal BFGS step
   17   -2088.9155821207      1.59e-04   Normal BFGS step
   18   -2088.9155821569      4.88e-05   Normal BFGS step
   19   -2088.9155821643      7.47e-05   Normal BFGS step
   20   -2088.9155821682      7.03e-05   Normal BFGS step
   21   -2088.9155821702      2.21e-05   Normal BFGS step
   22   -2088.9155821752      9.13e-06   Normal BFGS step
   23   -2088.9155821754      9.10e-06   Normal BFGS step
   24   -2088.9155821756      2.89e-06   Normal BFGS step
   25   -2088.9155821757      1.06e-06   Normal BFGS step
   26   -2088.9155821757      1.27e-06   Normal BFGS step
   27   -2088.9155821757      2.95e-06   Normal BFGS step
   28   -2088.9155821757      1.30e-06   Normal BFGS step
   29   -2088.9155821757      3.11e-06   Normal BFGS step
   30   -2088.9155821757      3.31e-07   Normal BFGS step
   31   -2088.9155821757      9.20e-07   Normal BFGS step
   32   -2088.9155821757      1.98e-07   Normal BFGS step
   33   -2088.9155821757      4.36e-07   Normal BFGS step
   34   -2088.9155821757      1.08e-07   Normal BFGS step
   35   -2088.9155821757      2.15e-07   Normal BFGS step
   36   -2088.9155821757      7.89e-08   Normal BFGS step
   37   -2088.9155821757      1.85e-07   Normal BFGS step
   38   -2088.9155821757      1.44e-08   Normal BFGS step
   39   -2088.9155821757      3.74e-08   Normal BFGS step
   40   -2088.9155821757      3.08e-09  Convergence criterion met
 ---------------------------------------
 SCF time:   CPU 851.33s  wall 73.00s 
<S^2> =          6.586954444
 SCF   energy in the final basis set =    -2088.9155821757
 Total energy in the final basis set =    -2088.9155821757
 
 --------------------------------------------------------------
 
                    Orbital Energies (a.u.)
 --------------------------------------------------------------
 
 Alpha MOs
 -- Occupied --
******* -29.502 -26.056 -26.055 -26.051 -18.822 -18.803 -18.762
-10.006  -9.955  -9.897  -9.896  -9.891  -9.889  -9.883  -9.876
 -9.876  -9.875  -9.875  -9.865  -9.864  -9.861  -9.861  -9.858
 -3.693  -2.535  -2.531  -2.524  -1.157  -1.122  -0.935  -0.830
 -0.823  -0.781  -0.777  -0.763  -0.735  -0.712  -0.694  -0.691
 -0.679  -0.669  -0.621  -0.605  -0.595  -0.571  -0.569  -0.555
 -0.549  -0.516  -0.503  -0.496  -0.484  -0.471  -0.464  -0.460
 -0.459  -0.450  -0.445  -0.445  -0.435  -0.430  -0.426  -0.423
 -0.418  -0.415  -0.410  -0.400  -0.398  -0.381  -0.380  -0.377
 -0.373  -0.362  -0.362  -0.358  -0.348  -0.346  -0.343  -0.342
 -0.331  -0.316  -0.306  -0.281  -0.273  -0.260  -0.243
 -- Virtual --
 -0.239  -0.159  -0.120  -0.117  -0.079  -0.071  -0.017   0.016
  0.051   0.091   0.133   0.135   0.159   0.170   0.177   0.182
  0.184   0.192   0.195   0.218   0.226   0.227   0.238   0.248
  0.252   0.262   0.267   0.271   0.277   0.280   0.282   0.284
  0.290   0.298   0.301   0.308   0.309   0.312   0.322   0.324
  0.339   0.352   0.359   0.370   0.378   0.396   0.413   0.433
  0.471   0.500   0.518
 
 Beta MOs
 -- Occupied --
******* -29.464 -26.024 -26.023 -26.022 -18.822 -18.805 -18.763
-10.006  -9.955  -9.897  -9.896  -9.891  -9.890  -9.883  -9.876
 -9.876  -9.876  -9.875  -9.866  -9.864  -9.861  -9.861  -9.858
 -3.493  -2.345  -2.325  -2.322  -1.161  -1.122  -0.935  -0.833
 -0.824  -0.782  -0.778  -0.763  -0.736  -0.712  -0.695  -0.691
 -0.680  -0.670  -0.622  -0.606  -0.591  -0.571  -0.570  -0.554
 -0.551  -0.515  -0.502  -0.496  -0.480  -0.471  -0.464  -0.461
 -0.451  -0.449  -0.445  -0.443  -0.436  -0.430  -0.426  -0.423
 -0.418  -0.414  -0.408  -0.400  -0.386  -0.381  -0.378  -0.373
 -0.371  -0.347  -0.345  -0.344  -0.331  -0.316  -0.303  -0.289
 -0.281  -0.259  -0.253
 -- Virtual --
 -0.193  -0.160  -0.159  -0.157  -0.157  -0.140  -0.120  -0.095
 -0.083  -0.060  -0.016   0.014   0.054   0.119   0.132   0.136
  0.159   0.169   0.176   0.181   0.183   0.191   0.194   0.217
  0.226   0.226   0.237   0.247   0.251   0.261   0.266   0.270
  0.277   0.280   0.282   0.283   0.290   0.297   0.301   0.308
  0.309   0.311   0.321   0.324   0.338   0.352   0.358   0.369
  0.377   0.395   0.411   0.430   0.471   0.498   0.517
 --------------------------------------------------------------
 
          Ground-State Mulliken Net Atomic Charges

     Atom                 Charge (a.u.)    Spin (a.u.)
  --------------------------------------------------------
      1 Fe                    0.432427       4.589047
      2 O                    -0.202727      -0.105622
      3 O                     0.020973      -0.038102
      4 H                     0.078990       0.000242
      5 H                     0.090946      -0.000474
      6 C                    -0.215049      -0.006045
      7 H                     0.060950       0.000148
      8 H                     0.076880      -0.000110
      9 H                     0.082061      -0.000343
     10 C                    -0.129216      -0.000597
     11 C                     0.024660       0.003736
     12 C                    -0.127569      -0.001305
     13 H                     0.089839       0.000093
     14 H                     0.083558      -0.000948
     15 H                     0.089334      -0.000128
     16 C                    -0.217685      -0.003826
     17 C                    -0.013666      -0.106271
     18 H                     0.093527      -0.005109
     19 H                     0.064249       0.000217
     20 C                    -0.133695       0.004861
     21 C                     0.065621       0.008117
     22 C                    -0.221385       0.000635
     23 C                     0.030837      -0.121895
     24 H                     0.100071      -0.001416
     25 H                     0.095997      -0.005349
     26 H                     0.097164      -0.000002
     27 H                     0.076124       0.000086
     28 C                    -0.220457       0.006383
     29 H                     0.089231      -0.003404
     30 C                    -0.006048      -0.008373
     31 H                     0.075363       0.000158
     32 H                     0.093090      -0.008864
     33 C                    -0.007101      -0.031635
     34 H                     0.096183      -0.000116
     35 H                     0.096525       0.000052
     36 C                    -0.058702      -0.018958
     37 C                    -0.069589      -0.000956
     38 H                     0.087669       0.000632
     39 C                    -0.108442      -0.049687
     40 H                     0.106549       0.001962
     41 H                     0.096807       0.002000
     42 H                     0.107486       0.001226
     43 O                    -0.246878      -0.096893
     44 H                     0.108253      -0.005799
     45 H                     0.266843       0.002630
  --------------------------------------------------------
  Sum of atomic charges =     1.000000
  Sum of spin   charges =     4.000000

 -----------------------------------------------------------------
                    Cartesian Multipole Moments
 -----------------------------------------------------------------
    Charge (ESU x 10^10)
                 4.8032
    Dipole Moment (Debye)
         X      -1.7946      Y       1.1589      Z      -0.5643
       Tot       2.2096
    Quadrupole Moments (Debye-Ang)
        XX     -87.3118     XY      -3.0083     YY     -97.7922
        XZ      -2.5965     YZ       0.6110     ZZ    -114.4468
    Octopole Moments (Debye-Ang^2)
       XXX     -48.6765    XXY      43.5633    XYY     -69.8021
       YYY     -35.1477    XXZ     -12.8524    XYZ      -7.6307
       YYZ       8.2297    XZZ       3.3104    YZZ      -5.1230
       ZZZ      -0.8157
    Hexadecapole Moments (Debye-Ang^3)
      XXXX   -4636.1275   XXXY    -186.5052   XXYY   -1088.2396
      XYYY     -13.1146   YYYY   -2721.4962   XXXZ     -12.5034
      XXYZ      14.2565   XYYZ     -37.7809   YYYZ     -14.4931
      XXZZ   -1031.7630   XYZZ      19.1969   YYZZ    -679.5038
      XZZZ      -7.6764   YZZZ     -25.7954   ZZZZ   -1322.6995
 -----------------------------------------------------------------
 Calculating analytic gradient of the SCF energy
 Gradient of SCF Energy
            1           2           3           4           5           6
    1  -0.0025630   0.0011962  -0.0030473  -0.0004271   0.0004152  -0.0006043
    2   0.0081979  -0.0018831  -0.0229247   0.0005924  -0.0008559   0.0005919
    3   0.0051671  -0.0028392   0.0012001   0.0000741  -0.0001658  -0.0027951
            7           8           9          10          11          12
    1  -0.0001568   0.0002626  -0.0004442  -0.0003234   0.0008201   0.0005001
    2  -0.0002039   0.0004320   0.0003883  -0.0007030   0.0023403  -0.0023718
    3   0.0000155  -0.0010898  -0.0005790   0.0037312   0.0101739  -0.0029469
           13          14          15          16          17          18
    1   0.0000959  -0.0001069   0.0002078  -0.0007883  -0.1123722   0.0008077
    2  -0.0003089  -0.0005195   0.0005916  -0.0016796  -0.0136129  -0.0017967
    3  -0.0008902   0.0003614  -0.0003807  -0.0020653  -0.0168136  -0.0044917
           19          20          21          22          23          24
    1  -0.0004607  -0.0085349  -0.0450646   0.0024213   0.0376885  -0.0002694
    2   0.0010644   0.0125605   0.2030569  -0.0003947  -0.0024465   0.0016806
    3  -0.0000594   0.0087953  -0.2872382   0.0023904  -0.0439302  -0.0007885
           25          26          27          28          29          30
    1  -0.0005035   0.0002236   0.0003797  -0.0003444  -0.0001076   0.0281912
    2   0.0045734   0.0005201  -0.0000579  -0.0062801  -0.0002043   0.0183138
    3   0.0016700  -0.0006172   0.0005777   0.0044079  -0.0004854  -0.0577559
           31          32          33          34          35          36
    1   0.0001856  -0.0013839   0.0046439   0.0005884  -0.0011109  -0.0098603
    2  -0.0002468  -0.0046784  -0.0116302   0.0017864   0.0002574   0.0145347
    3   0.0001505  -0.0026839  -0.0060502  -0.0006476  -0.0006465   0.0058749
           37          38          39          40          41          42
    1   0.0098866   0.0006886  -0.0031993  -0.0017893   0.0007365   0.0036339
    2  -0.0139125   0.0003367   0.0073421   0.0010293   0.0005296  -0.0018910
    3  -0.0068442   0.0007977   0.0070162  -0.0012094   0.0019095   0.0009391
           43          44          45
    1   0.0942590   0.0120580  -0.0064281
    2  -0.1892051   0.0306173  -0.0335301
    3   0.3604993   0.0357204  -0.0074583
 Max gradient component =       3.605E-01
 RMS gradient           =       4.923E-02
 Gradient time:  CPU 74.38 s  wall 8.54 s
 Geometry Optimization Parameters
   NAtoms,    NIC,     NZ,  NCons,   NDum,   NFix, NCnnct, MaxDiis
       45     329       0       0       0       0       0       0

 Cartesian Hessian Update
 Hessian Updated using BFGS Update


** GEOMETRY OPTIMIZATION IN DELOCALIZED INTERNAL COORDINATES **
   Searching for a Minimum

   Optimization Cycle:   2

                       Coordinates (Angstroms)
     ATOM                X               Y               Z
      1  Fe       -1.2528441178   -3.6422812905    0.1302426179
      2  O        -1.6474027592   -2.1236607984    0.0916791270
      3  O        -1.4637427276   -1.0443725199    1.0814979604
      4  H         2.1125631532    2.7734693151    1.0683597333
      5  H         2.1753536651    2.1413697001    2.7502364952
      6  C         1.7381874798    1.9790911610    1.7446221907
      7  H         0.6391221291    2.0866705192    1.8322035379
      8  H         4.1951565710    2.3267819234    0.3011976887
      9  H         4.0647220153    0.7315625682    2.3235058741
     10  C         4.4705179612    1.2538586044    0.2215553483
     11  C         2.1624038305    0.5339466301    1.2322438058
     12  C         3.7451656762    0.4042717279    1.3113302939
     13  H         5.5724110820    1.1766296038    0.3412910766
     14  H        -2.5464771423   -0.7755695187   -1.6839579092
     15  H         1.9995590081   -0.4594555976    3.1971537073
     16  C         1.5686082025   -0.5910054766    2.1844668427
     17  C         1.6535990201    0.3183931832   -0.2614564339
     18  H         4.3901498933    1.3792661136   -2.0229182328
     19  H         0.4671382340   -0.5425059041    2.2740973747
     20  C         4.0773485997    0.7049748535   -1.1870449019
     21  C         0.2314564372    0.1183266852   -0.6412492948
     22  C        -2.7589588667    0.3135363239   -1.6395702190
     23  C         2.5908081534    0.3610810226   -1.3779122133
     24  H        -2.2710082089    0.7997308005   -2.5141442073
     25  H         1.8121736764    1.0559455429   -3.2929418291
     26  H        -3.8527224804    0.4579850471   -1.7399127632
     27  H         4.0334625309   -0.6633146248    1.1978991324
     28  C         2.1921582066    0.1031378183   -2.8497635397
     29  H         1.4084151403   -0.6723548224   -2.9670604951
     30  C        -0.9903249829    0.3054750912    0.3436845348
     31  H         1.8550008803   -1.5974411576    1.8175771579
     32  H         4.6235088895   -0.2595436620   -1.3843540216
     33  C        -2.2465838290    0.9098529381   -0.3086733359
     34  H         3.0907708729   -0.1906125807   -3.4311007078
     35  H        -4.5894660395    2.3395762100   -0.9965330940
     36  C        -2.8924367113    1.9392755113    0.3883272072
     37  C        -4.1114704633    2.6360328629   -0.0420804959
     38  H        -2.4501005283    2.2807668125    1.3491000855
     39  C        -4.6746549046    3.6482995464    0.7121263281
     40  H        -5.5988025281    4.1653374757    0.3807066668
     41  H        -4.2275643245    3.9790676731    1.6726224519
     42  H        -0.7051461915    0.8692136200    1.2663658269
     43  O         0.0181347727    0.8229093401   -1.5663322073
     44  H         0.2222362253   -0.9733041818   -0.7160704070
     45  H         0.0634983006    1.7795360703   -1.3255421365
   Point Group: c1    Number of degrees of freedom:   129


   Energy is  -2088.915582176

 Hessian Updated using BFGS Update

114 Hessian modes will be used to form the next step
  Hessian Eigenvalues:
     0.002000    0.002000    0.003141    0.003298    0.003299    0.004060
     0.004461    0.004467    0.005606    0.007236    0.008224    0.009785
     0.013725    0.017593    0.018791    0.019796    0.021302    0.023821
     0.023821    0.025970    0.029016    0.039838    0.040428    0.043092
     0.047156    0.047542    0.048273    0.048651    0.050274    0.052410
     0.052588    0.055877    0.056506    0.057165    0.059302    0.059827
     0.067032    0.068442    0.069921    0.070518    0.074014    0.076177
     0.077924    0.082296    0.088342    0.097535    0.100531    0.101379
     0.121829    0.132886    0.158228    0.159933    0.159993    0.160000
     0.162575    0.184676    0.188236    0.200482    0.201190    0.212810
     0.219998    0.220002    0.225106    0.225413    0.242235    0.244701
     0.245275    0.246027    0.249637    0.249660    0.249770    0.249798
     0.249976    0.250261    0.258040    0.262978    0.281251    0.281286
     0.285537    0.286324    0.296432    0.307654    0.315641    0.316461
     0.317538    0.321926    0.323802    0.324196    0.324759    0.324857
     0.324907    0.325122    0.325276    0.325627    0.325871    0.327045
     0.327312    0.327624    0.327626    0.327664    0.327786    0.328350
     0.328501    0.330265    0.335431    0.354393    0.362651    0.374498
     0.442296    0.450856    0.474662    0.533964    0.584975    2.114601

 Minimum Search - Taking Simple RFO Step
 Searching for Lamda that Minimizes Along All modes
 Value Taken    Lamda =  -0.12534433
 Calculated Step too Large.  Step scaled by  0.742470
 Step Taken.  Stepsize is  0.300000

                             Maximum     Tolerance    Cnvgd?
         Gradient           0.197622      0.000300      NO
         Displacement       0.082264      0.001200      NO
         Energy change     -0.177940      0.000001      NO


 New Cartesian Coordinates Obtained by Inverse Iteration

 Displacement from previous Coordinates is:  1.045923
 ----------------------------------------------------------------
             Standard Nuclear Orientation (Angstroms)
    I     Atom           X                Y                Z
 ----------------------------------------------------------------
    1      Fe     -1.2343694107    -3.6231334026     0.0716562930
    2      O      -1.6410384425    -2.1024111409     0.1000409638
    3      O      -1.4220801749    -1.0167906744     1.0832472943
    4      H       2.0850540767     2.7780156737     1.0360004018
    5      H       2.1025790945     2.1559768301     2.7224158708
    6      C       1.6958032792     1.9852986915     1.7052972244
    7      H       0.5945218329     2.0871742287     1.7610427518
    8      H       4.1848308965     2.3432572383     0.3288306336
    9      H       4.0106265143     0.7588893096     2.3574286665
   10      C       4.4716150004     1.2726831271     0.2629040192
   11      C       2.1447079103     0.5417546525     1.2075069714
   12      C       3.7239468633     0.4253816770     1.3370532431
   13      H       5.5704627221     1.2066364327     0.4132706402
   14      H      -2.6359706336    -0.7980492945    -1.6276594871
   15      H       1.9413630500    -0.4477336297     3.1748227828
   16      C       1.5391020875    -0.5862351406     2.1511028479
   17      C       1.6840680074     0.3173129749    -0.2985411297
   18      H       4.4418185889     1.3779313009    -1.9750192193
   19      H       0.4361583812    -0.5556572239     2.2137183976
   20      C       4.1151799174     0.7047698786    -1.1466076698
   21      C       0.2260751675     0.0905017057    -0.7321429515
   22      C      -2.8404325480     0.2924992239    -1.5915501088
   23      C       2.6243925282     0.3567635902    -1.3600938175
   24      H      -2.3882947908     0.7583265417    -2.4944411174
   25      H       1.9047601678     1.0145289478    -3.3282891944
   26      H      -3.9370722724     0.4413395132    -1.6441539321
   27      H       4.0233787095    -0.6403801989     1.2364721815
   28      C       2.2739687850     0.0803291746    -2.8464724902
   29      H       1.4992722089    -0.7018849885    -2.9742140384
   30      C      -0.9822944088     0.3043917673     0.3194670724
   31      H       1.8480434309    -1.5896540043     1.7947682074
   32      H       4.6772685448    -0.2514957355    -1.3170966860
   33      C      -2.2651167821     0.9069325752    -0.2920781717
   34      H       3.1923907015    -0.2234605797    -3.3900930427
   35      H      -4.6254405103     2.3388218930    -0.9062858876
   36      C      -2.8736814615     1.9431801347     0.4111647095
   37      C      -4.1093498075     2.6471391952     0.0232763992
   38      H      -2.3909651440     2.2954278707     1.3472124956
   39      C      -4.6337331415     3.6678502947     0.7800140795
   40      H      -5.5667485375     4.1847585211     0.4813938550
   41      H      -4.1465447611     4.0093186198     1.7149021935
   42      H      -0.6632339389     0.8816868794     1.2207334288
   43      O      -0.0147138288     0.7892317613    -1.7479447942
   44      H       0.2011697205    -1.0165916971    -0.8504753049
   45      H       0.0524462090     1.7553176457    -1.4671099610
 ----------------------------------------------------------------
 Molecular Point Group                 C1    NOp =  1
 Largest Abelian Subgroup              C1    NOp =  1
 Nuclear Repulsion Energy =  1954.9331857359 hartrees
 There are       87 alpha and       83 beta electrons
 Applying Cartesian multipole field
    Component          Value
    ---------          -----
     (2,0,0)        1.00000E-12
     (0,2,0)        2.00000E-11
     (0,0,2)       -3.00000E-11
 Nucleus-field energy     =     0.0000000209 hartrees
 Requested basis set is STO-3G
 There are 68 shells and 138 basis functions
 A cutoff of  1.0D-12 yielded   1793 shell pairs
 There are      8039 function pairs (      8134 Cartesian)
 Smallest overlap matrix eigenvalue = 2.03E-01
 Guess MOs from SCF MO coefficient file

 -----------------------------------------------------------------------
  General SCF calculation program by
  Eric Jon Sundstrom, Paul Horn, Yuezhi Mao, Dmitri Zuev, Alec White,
  David Stuck, Shaama M.S., Shane Yost, Joonho Lee, David Small,
  Daniel Levine, Susi Lehtola, Hugh Burton, Evgeny Epifanovsky
 -----------------------------------------------------------------------
 Exchange:  B88      Correlation:  LYP
 Using SG-1 standard quadrature grid
 using 12 threads for integral computing
 -------------------------------------------------------
 OpenMP Integral computing Module                
 Release: version 1.0, May 2013, Q-Chem Inc. Pittsburgh 
 -------------------------------------------------------
 -------------------------------------------------------
 OpenMP BLAS3 based DFT computing Module                
 Release: version 1.0, May 2013, Q-Chem Inc. Pittsburgh 
 -------------------------------------------------------
 A unrestricted SCF calculation will be
 performed using DIIS, GDM
 SCF converges when RMS gradient is below 1.0e-08
 ---------------------------------------
  Cycle       Energy         DIIS error
 ---------------------------------------
    1   -2088.9760288266      6.96e-04  
    2   -2088.9798292982      5.07e-04  Done DIIS. Switching to GDM
 ---------------------------------------
  Cycle       Energy        RMS Gradient
 ---------------------------------------
    1   -2088.9798292982      1.07e-01   Normal BFGS step
    2   -2088.9534798208      2.58e-01  Line search: overstep
    3   -2088.9854224884      4.35e-02   Normal BFGS step
    4   -2088.9831126835      4.72e-02  Line search: overstep
    5   -2088.9866048550      2.05e-02   Normal BFGS step
    6   -2088.9871488469      1.92e-02   Normal BFGS step
    7   -2088.9873731852      7.38e-03   Normal BFGS step
    8   -2088.9871701449      2.09e-02  Line search: overstep
    9   -2088.9874151790      3.35e-03   Normal BFGS step
   10   -2088.9874007451      4.67e-03  Line search: overstep
   11   -2088.9874263485      2.07e-03   Normal BFGS step
   12   -2088.9874202914      2.89e-03  Line search: overstep
   13   -2088.9874319729      1.08e-03   Normal BFGS step
   14   -2088.9874315002      1.26e-03  Line search: overstep
   15   -2088.9874335225      4.39e-04   Normal BFGS step
   16   -2088.9874337331      1.92e-04   Normal BFGS step
   17   -2088.9874338297      2.38e-04   Normal BFGS step
   18   -2088.9874338314      1.85e-04   Normal BFGS step
   19   -2088.9874338984      7.19e-05   Normal BFGS step
   20   -2088.9874338959      7.85e-05   Normal BFGS step
   21   -2088.9874339085      5.68e-05   Normal BFGS step
   22   -2088.9874339093      3.20e-05   Normal BFGS step
   23   -2088.9874339121      2.29e-05   Normal BFGS step
   24   -2088.9874339118      1.90e-05   Normal BFGS step
   25   -2088.9874339131      4.01e-06   Normal BFGS step
   26   -2088.9874339131      5.34e-06   Normal BFGS step
   27   -2088.9874339132      1.34e-06   Normal BFGS step
   28   -2088.9874339132      3.19e-06   Normal BFGS step
   29   -2088.9874339132      7.63e-07   Normal BFGS step
   30   -2088.9874339132      5.02e-07   Normal BFGS step
   31   -2088.9874339132      7.28e-07   Normal BFGS step
   32   -2088.9874339132      1.51e-06   Normal BFGS step
   33   -2088.9874339132      2.53e-07   Normal BFGS step
   34   -2088.9874339132      7.36e-07   Normal BFGS step
   35   -2088.9874339132      1.28e-07   Normal BFGS step
   36   -2088.9874339132      2.62e-07   Normal BFGS step
   37   -2088.9874339132      1.92e-08   Normal BFGS step
   38   -2088.9874339132      3.96e-08   Normal BFGS step
   39   -2088.9874339132      1.08e-08   Normal BFGS step
   40   -2088.9874339132      1.95e-08   Normal BFGS step
   41   -2088.9874339132      2.35e-09  Convergence criterion met
 ---------------------------------------
 SCF time:   CPU 976.85s  wall 93.00s 
<S^2> =          6.579080471
 SCF   energy in the final basis set =    -2088.9874339132
 Total energy in the final basis set =    -2088.9874339132
 
 --------------------------------------------------------------
 
                    Orbital Energies (a.u.)
 --------------------------------------------------------------
 
 Alpha MOs
 -- Occupied --
******* -29.508 -26.062 -26.061 -26.057 -18.832 -18.807 -18.757
 -9.992  -9.961  -9.899  -9.896  -9.893  -9.885  -9.883  -9.879
 -9.871  -9.871  -9.870  -9.868  -9.862  -9.859  -9.858  -9.856
 -3.699  -2.541  -2.538  -2.530  -1.126  -1.114  -0.944  -0.828
 -0.824  -0.777  -0.774  -0.759  -0.731  -0.709  -0.692  -0.690
 -0.673  -0.662  -0.613  -0.602  -0.591  -0.570  -0.564  -0.548
 -0.541  -0.513  -0.501  -0.493  -0.484  -0.471  -0.463  -0.460
 -0.457  -0.448  -0.446  -0.443  -0.434  -0.429  -0.425  -0.422
 -0.418  -0.415  -0.412  -0.402  -0.397  -0.382  -0.378  -0.375
 -0.370  -0.368  -0.368  -0.362  -0.351  -0.345  -0.344  -0.343
 -0.329  -0.321  -0.313  -0.287  -0.272  -0.264  -0.249
 -- Virtual --
 -0.245  -0.163  -0.124  -0.117  -0.086  -0.062  -0.016   0.017
  0.056   0.086   0.126   0.131   0.154   0.166   0.168   0.182
  0.186   0.188   0.196   0.217   0.224   0.228   0.235   0.249
  0.253   0.257   0.266   0.270   0.277   0.278   0.280   0.285
  0.291   0.296   0.300   0.309   0.310   0.314   0.321   0.327
  0.341   0.348   0.359   0.366   0.378   0.387   0.403   0.410
  0.472   0.477   0.523
 
 Beta MOs
 -- Occupied --
******* -29.470 -26.030 -26.029 -26.029 -18.832 -18.809 -18.758
 -9.992  -9.961  -9.900  -9.896  -9.893  -9.885  -9.884  -9.879
 -9.872  -9.871  -9.870  -9.869  -9.862  -9.859  -9.858  -9.856
 -3.499  -2.350  -2.331  -2.328  -1.127  -1.117  -0.944  -0.830
 -0.825  -0.778  -0.775  -0.760  -0.731  -0.710  -0.693  -0.690
 -0.674  -0.663  -0.613  -0.602  -0.588  -0.570  -0.564  -0.548
 -0.541  -0.513  -0.500  -0.494  -0.481  -0.471  -0.462  -0.458
 -0.452  -0.448  -0.444  -0.443  -0.434  -0.428  -0.424  -0.422
 -0.417  -0.414  -0.409  -0.397  -0.388  -0.379  -0.377  -0.373
 -0.370  -0.347  -0.345  -0.344  -0.329  -0.322  -0.309  -0.296
 -0.278  -0.263  -0.258
 -- Virtual --
 -0.200  -0.166  -0.164  -0.163  -0.162  -0.145  -0.121  -0.100
 -0.072  -0.068  -0.016   0.015   0.060   0.112   0.125   0.131
  0.154   0.165   0.166   0.182   0.185   0.187   0.196   0.216
  0.223   0.227   0.234   0.248   0.252   0.258   0.266   0.270
  0.276   0.278   0.280   0.284   0.290   0.296   0.300   0.309
  0.310   0.314   0.320   0.327   0.340   0.347   0.359   0.365
  0.378   0.386   0.402   0.408   0.470   0.475   0.522
 --------------------------------------------------------------
 
          Ground-State Mulliken Net Atomic Charges

     Atom                 Charge (a.u.)    Spin (a.u.)
  --------------------------------------------------------
      1 Fe                    0.446985       4.582711
      2 O                    -0.200517      -0.110085
      3 O                     0.025979      -0.043661
      4 H                     0.079969       0.000211
      5 H                     0.090057      -0.000437
      6 C                    -0.214233      -0.005470
      7 H                     0.059751       0.000119
      8 H                     0.076196      -0.000094
      9 H                     0.081540      -0.000325
     10 C                    -0.129554      -0.000551
     11 C                     0.024870       0.002928
     12 C                    -0.127088      -0.001236
     13 H                     0.088828       0.000046
     14 H                     0.083403      -0.001248
     15 H                     0.088379      -0.000023
     16 C                    -0.218290      -0.003668
     17 C                    -0.020892      -0.093524
     18 H                     0.092296      -0.004306
     19 H                     0.062838       0.000230
     20 C                    -0.133473       0.003139
     21 C                     0.054348       0.009370
     22 C                    -0.221779       0.000881
     23 C                     0.025444      -0.093995
     24 H                     0.101988      -0.001936
     25 H                     0.094826      -0.003807
     26 H                     0.097609      -0.000011
     27 H                     0.075873       0.000062
     28 C                    -0.220719       0.004736
     29 H                     0.086927      -0.003217
     30 C                    -0.004283      -0.007770
     31 H                     0.074740       0.000154
     32 H                     0.091576      -0.006812
     33 C                    -0.004940      -0.040477
     34 H                     0.094336       0.000027
     35 H                     0.097258       0.000142
     36 C                    -0.058056      -0.020915
     37 C                    -0.068047      -0.003277
     38 H                     0.088256       0.000667
     39 C                    -0.108701      -0.057594
     40 H                     0.108007       0.002262
     41 H                     0.097991       0.002308
     42 H                     0.111070       0.002239
     43 O                    -0.216282      -0.106097
     44 H                     0.099533      -0.004914
     45 H                     0.245985       0.003218
  --------------------------------------------------------
  Sum of atomic charges =     1.000000
  Sum of spin   charges =     4.000000

 -----------------------------------------------------------------
                    Cartesian Multipole Moments
 -----------------------------------------------------------------
    Charge (ESU x 10^10)
                 4.8032
    Dipole Moment (Debye)
         X      -2.3498      Y       0.7900      Z      -0.4092
       Tot       2.5126
    Quadrupole Moments (Debye-Ang)
        XX     -87.2234     XY      -3.1216     YY     -96.5555
        XZ      -2.3850     YZ       0.9783     ZZ    -115.0989
    Octopole Moments (Debye-Ang^2)
       XXX     -55.3896    XXY      43.3483    XYY     -72.9404
       YYY     -41.4157    XXZ     -10.1591    XYZ      -8.5966
       YYZ      10.4196    XZZ       1.7108    YZZ      -5.4284
       ZZZ       4.5461
    Hexadecapole Moments (Debye-Ang^3)
      XXXX   -4641.5777   XXXY    -187.1123   XXYY   -1084.2600
      XYYY     -10.8027   YYYY   -2679.6358   XXXZ      -3.0519
      XXYZ      11.6660   XYYZ     -37.0714   YYYZ     -34.0411
      XXZZ   -1039.6650   XYZZ      20.1183   YYZZ    -676.5941
      XZZZ       5.0952   YZZZ     -48.5654   ZZZZ   -1330.6487
 -----------------------------------------------------------------
 Calculating analytic gradient of the SCF energy
 Gradient of SCF Energy
            1           2           3           4           5           6
    1  -0.0008832   0.0003205  -0.0018884  -0.0002090   0.0002198  -0.0014579
    2   0.0031623   0.0019285  -0.0147339   0.0002926  -0.0004699   0.0004840
    3   0.0039011  -0.0042589   0.0044232   0.0001064   0.0000286  -0.0029159
            7           8           9          10          11          12
    1  -0.0001847   0.0003907  -0.0000066  -0.0007042   0.0045630  -0.0002395
    2  -0.0006979   0.0002652   0.0002226  -0.0008249   0.0022019  -0.0018724
    3  -0.0000918  -0.0007818  -0.0002548   0.0029574   0.0065790  -0.0028994
           13          14          15          16          17          18
    1   0.0001164  -0.0002380   0.0000179  -0.0016580  -0.0572791   0.0012316
    2  -0.0001823  -0.0001910   0.0003389  -0.0014702  -0.0107034  -0.0020653
    3  -0.0006891   0.0000550  -0.0001255  -0.0022281  -0.0106648  -0.0028053
           19          20          21          22          23          24
    1  -0.0003649  -0.0061367  -0.0349457   0.0020682   0.0196848  -0.0006417
    2   0.0012534   0.0104751   0.1226499  -0.0000755  -0.0038334   0.0009151
    3  -0.0000748   0.0064530  -0.1876444   0.0006068  -0.0205211  -0.0004286
           25          26          27          28          29          30
    1  -0.0005661  -0.0000699   0.0003747  -0.0016095  -0.0001570   0.0140882
    2   0.0023765   0.0003151  -0.0000060  -0.0039138   0.0001193   0.0122426
    3   0.0010851  -0.0004851   0.0004635   0.0033015  -0.0002852  -0.0298707
           31          32          33          34          35          36
    1   0.0001414  -0.0008521   0.0022798   0.0004626  -0.0008587  -0.0042107
    2  -0.0001221  -0.0026488  -0.0058451   0.0017303   0.0004014   0.0072606
    3   0.0002187  -0.0017067  -0.0006688  -0.0007551  -0.0000078   0.0021577
           37          38          39          40          41          42
    1   0.0043021   0.0007547  -0.0010290  -0.0005929   0.0003165   0.0017345
    2  -0.0065008  -0.0000680   0.0026263   0.0003704   0.0000558  -0.0026601
    3  -0.0026262   0.0001046   0.0027243  -0.0007061   0.0007639   0.0019748
           43          44          45
    1   0.0600069   0.0087006  -0.0049913
    2  -0.1019978   0.0105837  -0.0213888
    3   0.2131930   0.0246448  -0.0022462
 Max gradient component =       2.132E-01
 RMS gradient           =       2.965E-02
 Gradient time:  CPU 77.76 s  wall 9.57 s
 Geometry Optimization Parameters
   NAtoms,    NIC,     NZ,  NCons,   NDum,   NFix, NCnnct, MaxDiis
       45     329       0       0       0       0       0       0

 Cartesian Hessian Update
 Hessian Updated using BFGS Update


** GEOMETRY OPTIMIZATION IN DELOCALIZED INTERNAL COORDINATES **
   Searching for a Minimum

   Optimization Cycle:   3

                       Coordinates (Angstroms)
     ATOM                X               Y               Z
      1  Fe       -1.2343694107   -3.6231334026    0.0716562930
      2  O        -1.6410384425   -2.1024111409    0.1000409638
      3  O        -1.4220801749   -1.0167906744    1.0832472943
      4  H         2.0850540767    2.7780156737    1.0360004018
      5  H         2.1025790945    2.1559768301    2.7224158708
      6  C         1.6958032792    1.9852986915    1.7052972244
      7  H         0.5945218329    2.0871742287    1.7610427518
      8  H         4.1848308965    2.3432572383    0.3288306336
      9  H         4.0106265143    0.7588893096    2.3574286665
     10  C         4.4716150004    1.2726831271    0.2629040192
     11  C         2.1447079103    0.5417546525    1.2075069714
     12  C         3.7239468633    0.4253816770    1.3370532431
     13  H         5.5704627221    1.2066364327    0.4132706402
     14  H        -2.6359706336   -0.7980492945   -1.6276594871
     15  H         1.9413630500   -0.4477336297    3.1748227828
     16  C         1.5391020875   -0.5862351406    2.1511028479
     17  C         1.6840680074    0.3173129749   -0.2985411297
     18  H         4.4418185889    1.3779313009   -1.9750192193
     19  H         0.4361583812   -0.5556572239    2.2137183976
     20  C         4.1151799174    0.7047698786   -1.1466076698
     21  C         0.2260751675    0.0905017057   -0.7321429515
     22  C        -2.8404325480    0.2924992239   -1.5915501088
     23  C         2.6243925282    0.3567635902   -1.3600938175
     24  H        -2.3882947908    0.7583265417   -2.4944411174
     25  H         1.9047601678    1.0145289478   -3.3282891944
     26  H        -3.9370722724    0.4413395132   -1.6441539321
     27  H         4.0233787095   -0.6403801989    1.2364721815
     28  C         2.2739687850    0.0803291746   -2.8464724902
     29  H         1.4992722089   -0.7018849885   -2.9742140384
     30  C        -0.9822944088    0.3043917673    0.3194670724
     31  H         1.8480434309   -1.5896540043    1.7947682074
     32  H         4.6772685448   -0.2514957355   -1.3170966860
     33  C        -2.2651167821    0.9069325752   -0.2920781717
     34  H         3.1923907015   -0.2234605797   -3.3900930427
     35  H        -4.6254405103    2.3388218930   -0.9062858876
     36  C        -2.8736814615    1.9431801347    0.4111647095
     37  C        -4.1093498075    2.6471391952    0.0232763992
     38  H        -2.3909651440    2.2954278707    1.3472124956
     39  C        -4.6337331415    3.6678502947    0.7800140795
     40  H        -5.5667485375    4.1847585211    0.4813938550
     41  H        -4.1465447611    4.0093186198    1.7149021935
     42  H        -0.6632339389    0.8816868794    1.2207334288
     43  O        -0.0147138288    0.7892317613   -1.7479447942
     44  H         0.2011697205   -1.0165916971   -0.8504753049
     45  H         0.0524462090    1.7553176457   -1.4671099610
   Point Group: c1    Number of degrees of freedom:   129


   Energy is  -2088.987433913

 Hessian Updated using BFGS Update

116 Hessian modes will be used to form the next step
  Hessian Eigenvalues:
     0.002000    0.002000    0.002004    0.003141    0.003298    0.003299
     0.004061    0.004466    0.004467    0.005607    0.007236    0.008225
     0.009785    0.013725    0.017593    0.018791    0.019797    0.021301
     0.023821    0.023821    0.025966    0.029018    0.039831    0.040424
     0.042992    0.047148    0.047535    0.048261    0.048574    0.050278
     0.052410    0.052588    0.055876    0.056505    0.057163    0.059259
     0.060892    0.067024    0.068447    0.069921    0.070519    0.074019
     0.076180    0.077908    0.082295    0.088358    0.097547    0.100582
     0.101411    0.121830    0.132888    0.158231    0.159816    0.159994
     0.160000    0.160072    0.171251    0.184784    0.188237    0.200443
     0.201194    0.218211    0.219992    0.220119    0.225006    0.225180
     0.242289    0.244683    0.245136    0.246020    0.247857    0.249648
     0.249681    0.249787    0.249974    0.251074    0.258013    0.262971
     0.281187    0.281335    0.285494    0.286189    0.299002    0.307661
     0.315653    0.316477    0.317518    0.321932    0.323806    0.324196
     0.324770    0.324857    0.324923    0.325123    0.325276    0.325628
     0.325870    0.327045    0.327313    0.327624    0.327627    0.327667
     0.327787    0.328349    0.328500    0.330258    0.342685    0.354332
     0.362605    0.377490    0.441435    0.451582    0.476254    0.527272
     0.585157    1.323850

 Minimum Search - Taking Simple RFO Step
 Searching for Lamda that Minimizes Along All modes
 Value Taken    Lamda =  -0.06572426
 Calculated Step too Large.  Step scaled by  0.850396
 Step Taken.  Stepsize is  0.300000

                             Maximum     Tolerance    Cnvgd?
         Gradient           0.111430      0.000300      NO
         Displacement       0.090277      0.001200      NO
         Energy change     -0.071852      0.000001      NO


 New Cartesian Coordinates Obtained by Inverse Iteration

 Displacement from previous Coordinates is:  0.676862
 ----------------------------------------------------------------
             Standard Nuclear Orientation (Angstroms)
    I     Atom           X                Y                Z
 ----------------------------------------------------------------
    1      Fe     -1.2827260813    -3.6361778258     0.0640738216
    2      O      -1.6735545304    -2.1095224424     0.1322730593
    3      O      -1.4278089746    -0.9981936729     1.0875329480
    4      H       2.0828720834     2.7755893289     1.0613063393
    5      H       2.1064586624     2.1386029345     2.7414453842
    6      C       1.6952394233     1.9772874267     1.7246456547
    7      H       0.5953693117     2.0848185934     1.7876464818
    8      H       4.1803434354     2.3589923173     0.3432614341
    9      H       4.0022878837     0.7690206380     2.3699272435
   10      C       4.4778162274     1.2915279812     0.2769325933
   11      C       2.1471189271     0.5395768205     1.2068717917
   12      C       3.7280518418     0.4384038404     1.3451913594
   13      H       5.5757388776     1.2356168863     0.4373463016
   14      H      -2.7011187292    -0.8232242579    -1.5850571257
   15      H       1.9784900296    -0.4676819507     3.1712297645
   16      C       1.5701052473    -0.6060476163     2.1498469580
   17      C       1.7015473638     0.3205827654    -0.3066799004
   18      H       4.4556385065     1.3975902804    -1.9522981031
   19      H       0.4688006173    -0.6095923401     2.2251659000
   20      C       4.1342019125     0.7147320143    -1.1320145266
   21      C       0.2079438730     0.0610562171    -0.7670998987
[...]
    2   0.0000042   0.0000076  -0.0000074   0.0000022  -0.0000005  -0.0000034
    3  -0.0000030  -0.0000132   0.0000148  -0.0000022   0.0000119   0.0000132
           37          38          39          40          41          42
    1  -0.0000000   0.0000023  -0.0000144  -0.0000032   0.0000007   0.0000050
    2  -0.0000141  -0.0000021  -0.0000136  -0.0000079  -0.0000030  -0.0000056
    3   0.0000078   0.0000017   0.0000164   0.0000043   0.0000037   0.0000087
           43          44          45
    1  -0.0000436   0.0000054   0.0000212
    2  -0.0000255  -0.0000076  -0.0000046
    3   0.0000251   0.0000083  -0.0000123
 Max gradient component =       4.741E-05
 RMS gradient           =       1.176E-05
 Gradient time:  CPU 31.04 s  wall 2.90 s
 Geometry Optimization Parameters
   NAtoms,    NIC,     NZ,  NCons,   NDum,   NFix, NCnnct, MaxDiis
       45     329       0       0       0       0       0       0

 Cartesian Hessian Update
 Hessian Updated using BFGS Update


** GEOMETRY OPTIMIZATION IN DELOCALIZED INTERNAL COORDINATES **
   Searching for a Minimum

   Optimization Cycle:  26

                       Coordinates (Angstroms)
     ATOM                X               Y               Z
      1  Fe       -1.0134632384   -3.5240105655   -0.2904213269
      2  O        -1.4160009111   -2.1026622370    0.2034233063
      3  O        -1.2923723151   -0.9677494583    1.1708522001
      4  H         2.2631476791    2.7806655013    1.1510001935
      5  H         2.1264804332    2.1020317717    2.8079876256
      6  C         1.7811967702    1.9902973817    1.7607629112
      7  H         0.6863896593    2.1601155255    1.7470433310
      8  H         4.2809844741    2.2165468948    0.1701750116
      9  H         4.0797814629    0.8088718607    2.3273427448
     10  C         4.5322316705    1.1345468608    0.1871294985
     11  C         2.1849317315    0.5474124782    1.2249833302
     12  C         3.7687875900    0.4079116901    1.3390022099
     13  H         5.6289434421    1.0438963299    0.3408851310
     14  H        -2.8966082832   -0.9391624851   -1.3639218613
     15  H         1.9526332561   -0.4047605072    3.2095133746
     16  C         1.5926063582   -0.5810462698    2.1761545101
     17  C         1.7098706177    0.3606184119   -0.2751860174
     18  H         4.5189877161    1.0646021770   -2.0304135658
     19  H         0.4865400262   -0.6092142513    2.1914646059
     20  C         4.1340440908    0.4703603740   -1.1712968627
     21  C         0.1879526491    0.3116567101   -0.6671622009
     22  C        -2.8417866206    0.1582941653   -1.5392524140
     23  C         2.5952183959    0.3111259647   -1.3392955171
     24  H        -2.1657438685    0.3349335788   -2.4032043180
     25  H         2.2917115235    1.0723583919   -3.3788889709
     26  H        -3.8534141717    0.5162663622   -1.8075214703
     27  H         4.0375321049   -0.6701916623    1.3167712580
     28  C         2.1949910041    0.1109840992   -2.8276186776
     29  H         1.1634473384   -0.2613947764   -2.9696715967
     30  C        -1.0142307580    0.3381750322    0.4069091925
     31  H         1.9573634878   -1.5761790847    1.8507879728
     32  H         4.6000179583   -0.5409967587   -1.2506198274
     33  C        -2.3181725470    0.8697006387   -0.2693860739
     34  H         2.8997912828   -0.6065192268   -3.2979794845
     35  H        -4.6976699519    2.2265551210   -1.0056800740
     36  C        -2.9944882300    1.8950982750    0.3880893495
     37  C        -4.2292993953    2.5652427220   -0.0611943134
     38  H        -2.5606686071    2.2845639315    1.3335638649
     39  C        -4.8081008046    3.5878980747    0.6519972452
     40  H        -5.7411423848    4.0742954337    0.3076869725
     41  H        -4.3688408080    3.9611076380    1.5981037937
     42  H        -0.7529547078    0.9987915402    1.2708476500
     43  O        -0.1655923614    1.5188868568   -1.5254690161
     44  H        -0.0072540995   -0.5612267247   -1.3416646875
     45  H         0.3761451426    2.2812523744   -1.0511543863
   Point Group: c1    Number of degrees of freedom:   129


   Energy is  -2089.054417482

 Hessian Updated using BFGS Update

129 Hessian modes will be used to form the next step
  Hessian Eigenvalues:
     0.001110    0.001250    0.001987    0.002100    0.003216    0.003955
     0.005062    0.006514    0.007419    0.008911    0.010074    0.013222
     0.013877    0.015232    0.017939    0.018881    0.019589    0.021757
     0.023849    0.024426    0.025178    0.028050    0.031154    0.034379
     0.041110    0.042903    0.045090    0.047341    0.050302    0.050977
     0.052519    0.052947    0.055062    0.056344    0.056816    0.057795
     0.061370    0.067083    0.068353    0.069947    0.070194    0.071190
     0.074116    0.076307    0.079057    0.082621    0.090948    0.099936
     0.100277    0.102820    0.106210    0.122661    0.153888    0.155583
     0.158732    0.159514    0.159558    0.159923    0.159983    0.160012
     0.160019    0.160062    0.160089    0.160214    0.160517    0.160830
     0.161123    0.162037    0.163941    0.172867    0.178067    0.194630
     0.198635    0.209032    0.218693    0.221873    0.227007    0.228090
     0.236100    0.237414    0.244597    0.245524    0.248723    0.249617
     0.259224    0.261321    0.264001    0.275381    0.280815    0.284582
     0.286866    0.289159    0.294052    0.301338    0.308100    0.315708
     0.316629    0.319445    0.322683    0.323845    0.323898    0.324255
     0.324788    0.324890    0.324947    0.325483    0.325707    0.325841
     0.326475    0.327218    0.327604    0.327838    0.327989    0.328253
     0.328454    0.329698    0.331054    0.337674    0.359005    0.362579
     0.371488    0.384930    0.444840    0.474474    0.487225    0.515595
     0.554063    0.555205    0.730045

 Minimum Search - Taking Simple RFO Step
 Searching for Lamda that Minimizes Along All modes
 Value Taken    Lamda =   0.00000000
 Step Taken.  Stepsize is  0.002967

                             Maximum     Tolerance    Cnvgd?
         Gradient           0.000053      0.000300     YES
         Displacement       0.000822      0.001200     YES
         Energy change     -0.000000      0.000001     YES

 Final energy is   -2089.05441748207     


 ******************************
 **  OPTIMIZATION CONVERGED  **
 ******************************

                       Coordinates (Angstroms)
     ATOM                X               Y               Z
      1  Fe       -1.0134632384   -3.5240105655   -0.2904213269
      2  O        -1.4160009111   -2.1026622370    0.2034233063
      3  O        -1.2923723151   -0.9677494583    1.1708522001
      4  H         2.2631476791    2.7806655013    1.1510001935
      5  H         2.1264804332    2.1020317717    2.8079876256
      6  C         1.7811967702    1.9902973817    1.7607629112
      7  H         0.6863896593    2.1601155255    1.7470433310
      8  H         4.2809844741    2.2165468948    0.1701750116
      9  H         4.0797814629    0.8088718607    2.3273427448
     10  C         4.5322316705    1.1345468608    0.1871294985
     11  C         2.1849317315    0.5474124782    1.2249833302
     12  C         3.7687875900    0.4079116901    1.3390022099
     13  H         5.6289434421    1.0438963299    0.3408851310
     14  H        -2.8966082832   -0.9391624851   -1.3639218613
     15  H         1.9526332561   -0.4047605072    3.2095133746
     16  C         1.5926063582   -0.5810462698    2.1761545101
     17  C         1.7098706177    0.3606184119   -0.2751860174
     18  H         4.5189877161    1.0646021770   -2.0304135658
     19  H         0.4865400262   -0.6092142513    2.1914646059
     20  C         4.1340440908    0.4703603740   -1.1712968627
     21  C         0.1879526491    0.3116567101   -0.6671622009
     22  C        -2.8417866206    0.1582941653   -1.5392524140
     23  C         2.5952183959    0.3111259647   -1.3392955171
     24  H        -2.1657438685    0.3349335788   -2.4032043180
     25  H         2.2917115235    1.0723583919   -3.3788889709
     26  H        -3.8534141717    0.5162663622   -1.8075214703
     27  H         4.0375321049   -0.6701916623    1.3167712580
     28  C         2.1949910041    0.1109840992   -2.8276186776
     29  H         1.1634473384   -0.2613947764   -2.9696715967
     30  C        -1.0142307580    0.3381750322    0.4069091925
     31  H         1.9573634878   -1.5761790847    1.8507879728
     32  H         4.6000179583   -0.5409967587   -1.2506198274
     33  C        -2.3181725470    0.8697006387   -0.2693860739
     34  H         2.8997912828   -0.6065192268   -3.2979794845
     35  H        -4.6976699519    2.2265551210   -1.0056800740
     36  C        -2.9944882300    1.8950982750    0.3880893495
     37  C        -4.2292993953    2.5652427220   -0.0611943134
     38  H        -2.5606686071    2.2845639315    1.3335638649
     39  C        -4.8081008046    3.5878980747    0.6519972452
     40  H        -5.7411423848    4.0742954337    0.3076869725
     41  H        -4.3688408080    3.9611076380    1.5981037937
     42  H        -0.7529547078    0.9987915402    1.2708476500
     43  O        -0.1655923614    1.5188868568   -1.5254690161
     44  H        -0.0072540995   -0.5612267247   -1.3416646875
     45  H         0.3761451426    2.2812523744   -1.0511543863

Z-matrix Print:
$molecule
1 5
Fe
O  1 1.557610
O  2 1.496406 1 151.128153
C  3 1.538314 2 109.738667 1 127.193262 0
H  4 1.118512 3 99.209852 2 -169.164749 0
C  4 1.562101 3 110.666926 2 76.205208 0
C  6 1.393240 4 116.828688 3 99.888712 0
H  7 1.110768 6 118.043879 4 1.209821 0
C  7 1.475028 6 126.655971 4 179.191725 0
H  9 1.107309 7 118.355296 6 1.148722 0
C  9 1.374583 7 122.172611 6 -178.819014 0
H  11 1.107113 9 121.356859 7 -179.344486 0
H  11 1.107859 9 121.786902 7 0.344992 0
C  6 1.546878 4 118.782048 3 -74.881916 0
H  14 1.106121 6 111.090594 4 169.986817 0
H  14 1.111147 6 111.053191 4 -69.225726 0
H  14 1.112725 6 109.932519 4 50.253524 0
C  4 1.612321 3 116.851361 2 -50.505091 0
H  18 1.120261 4 106.498106 3 52.375434 0
O  18 1.522856 4 100.913098 3 160.420886 0
H  20 1.048644 18 101.622211 4 92.012936 0
C  18 1.572348 4 123.719397 3 -76.511292 0
C  22 1.385142 18 115.216936 4 179.219371 0
C  23 1.554138 22 125.148449 18 -4.670396 0
H  24 1.105860 23 113.991221 22 -15.577991 0
H  24 1.110312 23 108.992187 22 -137.159560 0
H  24 1.112427 23 109.930896 22 105.788371 0
C  23 1.556137 22 123.056815 18 174.576786 0
H  28 1.113277 23 108.254372 22 -141.616195 0
H  28 1.116363 23 108.203150 22 103.314048 0
C  28 1.563656 23 112.896816 22 -18.535837 0
H  31 1.110917 28 110.051061 23 -72.582936 0
H  31 1.111141 28 109.688450 23 169.044163 0
C  31 1.561300 28 108.585949 23 48.766866 0
H  34 1.110992 31 110.577517 28 176.179608 0
H  34 1.111317 31 108.571553 28 58.506020 0
C  22 1.584640 18 121.995424 4 -4.543288 0
C  37 1.590281 22 111.772629 18 56.905213 0
H  38 1.106531 37 113.493720 22 -59.095070 0
H  38 1.108389 37 108.891878 22 -179.941870 0
H  38 1.108693 37 109.806623 22 61.963162 0
C  37 1.591219 22 110.461979 18 -66.358104 0
H  42 1.107984 37 112.676022 22 60.578956 0
H  42 1.108325 37 109.300241 22 -179.718454 0
H  42 1.108499 37 110.549014 22 -60.719207 0
$end

 
 --------------------------------------------------------------
 
                    Orbital Energies (a.u.)
 --------------------------------------------------------------
 
 Alpha MOs
 -- Occupied --
******* -29.495 -26.049 -26.048 -26.044 -18.832 -18.796 -18.756
 -9.978  -9.966  -9.916  -9.905  -9.894  -9.894  -9.894  -9.882
 -9.880  -9.874  -9.870  -9.867  -9.861  -9.854  -9.853  -9.852
 -3.687  -2.527  -2.525  -2.518  -1.113  -1.021  -0.950  -0.834
 -0.826  -0.784  -0.774  -0.759  -0.731  -0.714  -0.694  -0.687
 -0.671  -0.654  -0.617  -0.600  -0.578  -0.576  -0.560  -0.542
 -0.521  -0.506  -0.495  -0.489  -0.476  -0.471  -0.461  -0.457
 -0.452  -0.450  -0.444  -0.443  -0.438  -0.430  -0.425  -0.422
 -0.420  -0.416  -0.411  -0.405  -0.395  -0.391  -0.378  -0.373
 -0.372  -0.360  -0.355  -0.354  -0.354  -0.350  -0.341  -0.335
 -0.326  -0.317  -0.306  -0.284  -0.277  -0.269  -0.259
 -- Virtual --
 -0.251  -0.143  -0.122  -0.112  -0.091  -0.067  -0.015   0.013
  0.051   0.090   0.095   0.118   0.128   0.147   0.155   0.170
  0.180   0.187   0.190   0.197   0.209   0.214   0.220   0.232
  0.239   0.244   0.255   0.260   0.268   0.272   0.276   0.284
  0.288   0.291   0.296   0.300   0.311   0.318   0.320   0.323
  0.335   0.344   0.353   0.362   0.372   0.376   0.387   0.401
  0.461   0.504   0.511
 
 Beta MOs
 -- Occupied --
******* -29.457 -26.017 -26.016 -26.016 -18.830 -18.797 -18.759
 -9.978  -9.966  -9.916  -9.906  -9.894  -9.894  -9.893  -9.884
 -9.881  -9.875  -9.870  -9.867  -9.861  -9.854  -9.853  -9.852
 -3.486  -2.338  -2.317  -2.314  -1.111  -1.031  -0.948  -0.836
 -0.828  -0.786  -0.774  -0.760  -0.732  -0.716  -0.695  -0.687
 -0.671  -0.654  -0.615  -0.600  -0.577  -0.576  -0.556  -0.543
 -0.522  -0.507  -0.494  -0.490  -0.474  -0.471  -0.461  -0.456
 -0.451  -0.446  -0.444  -0.442  -0.435  -0.430  -0.423  -0.422
 -0.420  -0.415  -0.411  -0.395  -0.393  -0.385  -0.375  -0.373
 -0.372  -0.361  -0.356  -0.341  -0.327  -0.319  -0.304  -0.295
 -0.290  -0.273  -0.265
 -- Virtual --
 -0.202  -0.154  -0.152  -0.149  -0.149  -0.130  -0.119  -0.086
 -0.071  -0.069  -0.019   0.011   0.049   0.090   0.117   0.121
  0.133   0.147   0.156   0.169   0.180   0.187   0.190   0.197
  0.208   0.212   0.219   0.232   0.238   0.242   0.254   0.259
  0.268   0.273   0.276   0.284   0.288   0.291   0.296   0.300
  0.310   0.318   0.319   0.323   0.335   0.344   0.353   0.362
  0.371   0.376   0.386   0.400   0.459   0.503   0.509
 --------------------------------------------------------------
 
          Ground-State Mulliken Net Atomic Charges

     Atom                 Charge (a.u.)    Spin (a.u.)
  --------------------------------------------------------
      1 Fe                    0.405865       4.623535
      2 O                    -0.210723      -0.106610
      3 O                     0.025154       0.037126
      4 H                     0.078128       0.000058
      5 H                     0.089673      -0.000213
      6 C                    -0.214716      -0.002369
      7 H                     0.055433       0.000030
      8 H                     0.072976       0.000011
      9 H                     0.080875      -0.000038
     10 C                    -0.128757      -0.000538
     11 C                     0.025186       0.001351
     12 C                    -0.127206      -0.000043
     13 H                     0.087550      -0.000004
     14 H                     0.089726      -0.002014
     15 H                     0.086315       0.000130
     16 C                    -0.219345      -0.002667
     17 C                    -0.033640      -0.040937
     18 H                     0.089325      -0.001512
     19 H                     0.064361       0.000068
     20 C                    -0.133793       0.001022
     21 C                     0.009196       0.014462
     22 C                    -0.222235       0.001662
     23 C                     0.021383      -0.037021
     24 H                     0.101129      -0.002482
     25 H                     0.096035      -0.001474
     26 H                     0.101061      -0.000173
     27 H                     0.075421      -0.000023
     28 C                    -0.223166       0.001862
     29 H                     0.078103      -0.000447
     30 C                     0.006724      -0.004796
     31 H                     0.075774       0.000113
     32 H                     0.090802      -0.002433
     33 C                     0.018887      -0.056366
     34 H                     0.097040      -0.000375
     35 H                     0.101096      -0.000250
     36 C                    -0.052598      -0.073066
     37 C                    -0.060639       0.008224
     38 H                     0.092603       0.002847
     39 C                    -0.100935      -0.131782
     40 H                     0.113590       0.005434
     41 H                     0.103391       0.005383
     42 H                     0.114826       0.005531
     43 O                    -0.132050      -0.242984
     44 H                     0.099953      -0.006913
     45 H                     0.212224       0.008681
  --------------------------------------------------------
  Sum of atomic charges =     1.000000
  Sum of spin   charges =     4.000000

 -----------------------------------------------------------------
                    Cartesian Multipole Moments
 -----------------------------------------------------------------
    Charge (ESU x 10^10)
                 4.8032
    Dipole Moment (Debye)
         X      -3.1597      Y       2.1309      Z      -0.6731
       Tot       3.8701
    Quadrupole Moments (Debye-Ang)
        XX     -83.6379     XY      -7.4995     YY     -97.7170
        XZ      -2.0124     YZ       2.8818     ZZ    -115.1240
    Octopole Moments (Debye-Ang^2)
       XXX     -94.1966    XXY      57.3641    XYY     -74.8997
       YYY     -32.8861    XXZ      -5.8522    XYZ     -11.2515
       YYZ      16.6312    XZZ      -2.0640    YZZ      -9.2956
       ZZZ      15.3326
    Hexadecapole Moments (Debye-Ang^3)
      XXXX   -4628.6810   XXXY    -212.4585   XXYY   -1054.4430
      XYYY      21.1537   YYYY   -2580.1331   XXXZ     -32.2243
      XXYZ       0.8211   XYYZ     -53.3869   YYYZ     -87.1519
      XXZZ   -1052.5192   XYZZ      44.1145   YYZZ    -674.9297
      XZZZ     -37.0867   YZZZ     -87.9501   ZZZZ   -1314.6683
 -----------------------------------------------------------------
Archival summary:
1\1\compute-0-12.local\OPT\ProcedureUnspecified\STO-3G\e131625(1+,5)\c295_lal\WedNov2812:34:172018WedNov2812:34:172018\0\\#,OPT,ProcedureUnspecified,STO-3G,\\1,5\Fe\O,1,1.55761\O,2,1.49641,1,151.128\C,3,1.53831,2,109.739,1,127.193,0\H,4,1.11851,3,99.2099,2,-169.165,0\C,4,1.5621,3,110.667,2,76.2052,0\C,6,1.39324,4,116.829,3,99.8887,0\H,7,1.11077,6,118.044,4,1.20982,0\C,7,1.47503,6,126.656,4,179.192,0\H,9,1.10731,7,118.355,6,1.14872,0\C,9,1.37458,7,122.173,6,-178.819,0\H,11,1.10711,9,121.357,7,-179.344,0\H,11,1.10786,9,121.787,7,0.344992,0\C,6,1.54688,4,118.782,3,-74.8819,0\H,14,1.10612,6,111.091,4,169.987,0\H,14,1.11115,6,111.053,4,-69.2257,0\H,14,1.11273,6,109.933,4,50.2535,0\C,4,1.61232,3,116.851,2,-50.5051,0\H,18,1.12026,4,106.498,3,52.3754,0\O,18,1.52286,4,100.913,3,160.421,0\H,20,1.04864,18,101.622,4,92.0129,0\C,18,1.57235,4,123.719,3,-76.5113,0\C,22,1.38514,18,115.217,4,179.219,0\C,23,1.55414,22,125.148,18,-4.6704,0\H,24,1.10586,23,113.991,22,-15.578,0\H,24,1.11031,23,108.992,22,-137.16,0\H,24,1.11243,23,109.931,22,105.788,0\C,23,1.55614,22,123.057,18,174.577,0\H,28,1.11328,23,108.254,22,-141.616,0\H,28,1.11636,23,108.203,22,103.314,0\C,28,1.56366,23,112.897,22,-18.5358,0\H,31,1.11092,28,110.051,23,-72.5829,0\H,31,1.11114,28,109.688,23,169.044,0\C,31,1.5613,28,108.586,23,48.7669,0\H,34,1.11099,31,110.578,28,176.18,0\H,34,1.11132,31,108.572,28,58.506,0\C,22,1.58464,18,121.995,4,-4.54329,0\C,37,1.59028,22,111.773,18,56.9052,0\H,38,1.10653,37,113.494,22,-59.0951,0\H,38,1.10839,37,108.892,22,-179.942,0\H,38,1.10869,37,109.807,22,61.9632,0\C,37,1.59122,22,110.462,18,-66.3581,0\H,42,1.10798,37,112.676,22,60.579,0\H,42,1.10833,37,109.3,22,-179.718,0\H,42,1.1085,37,110.549,22,-60.7192,0\\\@

 Total job time:  1757.27s(wall), 19203.95s(cpu) 
 Wed Nov 28 12:34:17 2018

        *************************************************************
        *                                                           *
        *  Thank you very much for using Q-Chem.  Have a nice day.  *
        *                                                           *
        *************************************************************


