
Running Job 1 of 1 sys_2_opt_vdz_mgga_trip.in
qchem sys_2_opt_vdz_mgga_trip.in_11797.0 /scr/c295_lal/137043/qchem11797/ 1
/usr/software/qchem_511/exe/qcprog.exe_s sys_2_opt_vdz_mgga_trip.in_11797.0 /scr/c295_lal/137043/qchem11797/
Check license passed

                  Welcome to Q-Chem
     A Quantum Leap Into The Future Of Chemistry


 Q-Chem 5.1, Q-Chem, Inc., Pleasanton, CA (2018)

 Yihan Shao,  Zhengting Gan,  E. Epifanovsky,  A. T. B. Gilbert,  M. Wormit,  
 J. Kussmann,  A. W. Lange,  A. Behn,  Jia Deng,  Xintian Feng,  D. Ghosh,  
 M. Goldey,  P. R. Horn,  L. D. Jacobson,  I. Kaliman,  T. Kus,  A. Landau,  
 Jie Liu,  E. I. Proynov,  R. M. Richard,  R. P. Steele,  E. J. Sundstrom,  
 H. L. Woodcock III,  P. M. Zimmerman,  D. Zuev,  B. Albrecht,  E. Alguire,  
 S. A. Baeppler,  D. Barton,  Z. Benda,  Y. A. Bernard,  E. J. Berquist,  
 K. B. Bravaya,  H. Burton,  D. Casanova,  Chun-Min Chang,  Yunqing Chen,  
 A. Chien,  K. D. Closser,  M. P. Coons,  S. Coriani,  S. Dasgupta,  
 A. L. Dempwolff,  M. Diedenhofen,  Hainam Do,  R. G. Edgar,  Po-Tung Fang,  
 S. Faraji,  S. Fatehi,  Qingguo Feng,  K. D. Fenk,  J. Fosso-Tande,  
 Qinghui Ge,  A. Ghysels,  G. Gidofalvi,  J. Gomes,  J. Gonthier,  A. Gunina,  
 D. Hait,  M. W. D. Hanson-Heine,  P. H. P. Harbach,  A. W. Hauser,  
 J. E. Herr,  E. G. Hohenstein,  Z. C. Holden,  Kerwin Hui,  B. C. Huynh,  
 T.-C. Jagau,  Hyunjun Ji,  B. Kaduk,  K. Khistyaev,  Jaehoon Kim,  
 P. Klunzinger,  K. Koh,  D. Kosenkov,  L. Koulias,  T. Kowalczyk,  
 C. M. Krauter,  A. Kunitsa,  Ka Un Lao,  A. Laurent,  K. V. Lawler,  
 Joonho Lee,  D. Lefrancois,  S. Lehtola,  D. S. Levine,  Yi-Pei Li,  
 You-Sheng Lin,  Fenglai Liu,  E. Livshits,  A. Luenser,  P. Manohar,  
 E. Mansoor,  S. F. Manzer,  Shan-Ping Mao,  Yuezhi Mao,  N. Mardirossian,  
 A. V. Marenich,  T. Markovich,  L. A. Martinez-Martinez,  S. A. Maurer,  
 N. J. Mayhall,  S. C. McKenzie,  J.-M. Mewes,  A. F. Morrison,  
 J. W. Mullinax,  K. Nanda,  T. S. Nguyen-Beck,  R. Olivares-Amaya,  
 J. A. Parkhill,  T. M. Perrine,  F. Plasser,  P. Pokhilko,  S. Prager,  
 A. Prociuk,  E. Ramos,  D. R. Rehn,  F. Rob,  M. Schneider,  N. Sergueev,  
 S. M. Sharada,  S. Sharma,  D. W. Small,  T. Stauch,  T. Stein,  
 Yu-Chuan Su,  A. J. W. Thom,  A. Tkatchenko,  T. Tsuchimochi,  N. M. Tubman,  
 L. Vogt,  M. L. Vidal,  O. Vydrov,  M. A. Watson,  J. Wenzel,  
 M. de Wergifosse,  T. A. Wesolowski,  A. White,  J. Witte,  A. Yamada,  
 Jun Yang,  K. Yao,  S. Yeganeh,  S. R. Yost,  Zhi-Qiang You,  A. Zech,  
 Igor Ying Zhang,  Xing Zhang,  Yan Zhao,  Ying Zhu,  B. R. Brooks,  
 G. K. L. Chan,  C. J. Cramer,  M. S. Gordon,  W. J. Hehre,  A. Klamt,  
 M. W. Schmidt,  C. D. Sherrill,  D. G. Truhlar,  A. Aspuru-Guzik,  R. Baer,  
 A. T. Bell,  N. A. Besley,  Jeng-Da Chai,  A. E. DePrince, III,  
 R. A. DiStasio Jr.,  A. Dreuw,  B. D. Dunietz,  T. R. Furlani,  
 Chao-Ping Hsu,  Yousung Jung,  Jing Kong,  D. S. Lambrecht,  WanZhen Liang,  
 C. Ochsenfeld,  V. A. Rassolov,  L. V. Slipchenko,  J. E. Subotnik,  
 T. Van Voorhis,  J. M. Herbert,  A. I. Krylov,  P. M. W. Gill,  M. Head-Gordon

 Contributors to earlier versions of Q-Chem not listed above: 
 R. D. Adamson,  B. Austin,  J. Baker,  G. J. O. Beran,  K. Brandhorst,  
 S. T. Brown,  E. F. C. Byrd,  A. K. Chakraborty,  C.-L. Cheng,  
 Siu Hung Chien,  D. M. Chipman,  D. L. Crittenden,  H. Dachsel,  
 R. J. Doerksen,  A. D. Dutoi,  L. Fusti-Molnar,  W. A. Goddard III,  
 A. Golubeva-Zadorozhnaya,  S. R. Gwaltney,  G. Hawkins,  A. Heyden,  
 S. Hirata,  G. Kedziora,  F. J. Keil,  C. Kelley,  Jihan Kim,  R. A. King,  
 R. Z. Khaliullin,  P. P. Korambath,  W. Kurlancheek,  A. M. Lee,  M. S. Lee,  
 S. V. Levchenko,  Ching Yeh Lin,  D. Liotard,  R. C. Lochan,  I. Lotan,  
 P. E. Maslen,  N. Nair,  D. P. O'Neill,  D. Neuhauser,  E. Neuscamman,  
 C. M. Oana,  R. Olson,  B. Peters,  R. Peverati,  P. A. Pieniazek,  
 Y. M. Rhee,  J. Ritchie,  M. A. Rohrdanz,  E. Rosta,  N. J. Russ,  
 H. F. Schaefer III,  N. E. Schultz,  N. Shenvi,  A. C. Simmonett,  A. Sodt,  
 D. Stuck,  K. S. Thanthiriwatte,  V. Vanovschi,  Tao Wang,  A. Warshel,  
 C. F. Williams,  Q. Wu,  X. Xu,  W. Zhang

 Please cite Q-Chem as follows:
 Y. Shao et al., Mol. Phys. 113, 184-215 (2015)
 DOI: 10.1080/00268976.2014.952696

 Q-Chem 5.1.1 for Intel X86 EM64T Linux

 Parts of Q-Chem use Armadillo 8.300.2 (Tropical Shenanigans).
 http://arma.sourceforge.net/

 Q-Chem begins on Wed Oct 31 13:12:36 2018  

Host: cub-0-16.local
0

     Scratch files written to /scr/c295_lal/137043/qchem11797//
 Aug318 |scratch|qcdevops|jenkins|workspace|build_RNUM -1
Processing $rem in /usr/software/qchem_511/config/preferences.
 MEM_TOTAL  2000 
Input Ideriv = 2
Curr. Ideriv = -1
Max.  Ideriv = 2

Checking the input file for inconsistencies... 	...done.

--------------------------------------------------------------
User input:
--------------------------------------------------------------
$molecule
3 4
O         -2.11771        2.84524        1.90186
O         -1.27741        2.18552        1.47373
Fe        -2.81544        4.11050        2.04380
$end

$rem
BASIS = VDZ
METHOD  = B3LYP
JOBTYPE = OPT
MAX_SCF_CYCLES = 500
SCF_ALGORITHM = DIIS_GDM
$end
--------------------------------------------------------------
 ----------------------------------------------------------------
             Standard Nuclear Orientation (Angstroms)
    I     Atom           X                Y                Z
 ----------------------------------------------------------------
    1      O       0.6761783239    -0.2217388475    -0.0000000000
    2      O       1.7734850227     0.1254612018     0.0000000000
    3      Fe     -0.7537425682     0.0296238910     0.0000000000
 ----------------------------------------------------------------
 Molecular Point Group                 Cs    NOp =  2
 Largest Abelian Subgroup              Cs    NOp =  2
 Nuclear Repulsion Energy =   148.7611358301 hartrees
 There are       21 alpha and       18 beta electrons
 Requested basis set is VDZ
 There are 19 shells and 39 basis functions

 Total QAlloc Memory Limit   2000 MB
 Mega-Array Size       188 MB
 MEM_STATIC part       192 MB
 A cutoff of  1.0D-12 yielded    186 shell pairs
 There are       812 function pairs (       903 Cartesian)
 
 -------------------------------------------------------
 OpenMP Integral Computing Module                       
 Release: version 1.0, May 2013, Q-Chem Inc. Pittsburgh 
 -------------------------------------------------------
 Integral Job Info:
 Integral job number is                      11
 Integral operator is                         1
 short-range coefficients                     0
 long-range coefficients              100000000
 Omega coefficients                           0
 if combine SR and LR in K                    0
 Integral screening is                        0
 Integral computing path is                   2
 max size of driver memory is            800000
 size of driver memory is                593474
 size of scratch memory is             29634545
 max col of scratch BK array               1296
 max len of scratch array in speh3          155
 max len of scratch index in speh4           18
 max int batch size is                      520
 min int batch size is                       52
 fixed nKL is                                45
 max L of basis functions is                  2
 order of int derivative is                   0
 number of shells is                         19
 number of basis is                          41
 number of cartesian basis is                41
 number of contracted shell pairs           186
 number of primitive shell pairs           1017
 maxK2 (contraction) of shell pair           36
 max number of K2 of shell pair               1
 max number of CS2 of shell pair             23
 max number of PS2 of shell pair             70
 mem total for path MDJ                  515062
 -------------------------------------------------------
 Smallest overlap matrix eigenvalue = 1.30E-02

 Scale SEOQF with 1.000000e-01/1.000000e+00/1.000000e+00

 Standard Electronic Orientation quadrupole field applied
 Nucleus-field energy     =     0.0000000019 hartrees
 Guess from superposition of atomic densities
 Warning:  Energy on first SCF cycle will be non-variational
 SAD guess density has 42.000000 electrons

 -----------------------------------------------------------------------
  General SCF calculation program by
  Eric Jon Sundstrom, Paul Horn, Yuezhi Mao, Dmitri Zuev, Alec White,
  David Stuck, Shaama M.S., Shane Yost, Joonho Lee, David Small,
  Daniel Levine, Susi Lehtola, Hugh Burton, Evgeny Epifanovsky
 -----------------------------------------------------------------------
 Exchange:     0.2000 Hartree-Fock + 0.0800 Slater + 0.7200 B88
 Correlation:  0.1900 VWN1RPA + 0.8100 LYP
 Using SG-1 standard quadrature grid
 using 12 threads for integral computing
 -------------------------------------------------------
 OpenMP Integral computing Module                
 Release: version 1.0, May 2013, Q-Chem Inc. Pittsburgh 
 -------------------------------------------------------
 -------------------------------------------------------
 OpenMP BLAS3 based DFT computing Module                
 Release: version 1.0, May 2013, Q-Chem Inc. Pittsburgh 
 -------------------------------------------------------
 A unrestricted SCF calculation will be
 performed using DIIS, GDM
 SCF converges when RMS gradient is below 1.0e-08
 ---------------------------------------
  Cycle       Energy         DIIS error
 ---------------------------------------
    1   -1414.3027826794      8.56e-02  
    2   -1411.0412982861      3.35e-02  
    3   -1399.9437011469      1.03e-01  
    4   -1410.0851921351      5.09e-02  
    5   -1410.4853029399      4.57e-02  
    6   -1409.0689572011      5.86e-02  
    7   -1410.1384822843      4.94e-02  
    8   -1410.1393725364      4.94e-02  
    9   -1410.8648803802      3.88e-02  
   10   -1410.8840367130      3.85e-02  
   11   -1410.6794968130      4.19e-02  
   12   -1410.0637949293      5.01e-02  
   13   -1410.1695059287      4.88e-02  
   14   -1410.0550119395      5.01e-02  
   15   -1410.0930210370      4.96e-02  
   16   -1410.0962100875      4.95e-02  
   17   -1409.9244732510      5.13e-02  
   18   -1410.5718701457      4.33e-02  
   19   -1411.3966714832      2.41e-02  
   20   -1411.4892972265      1.97e-02  
   21   -1411.7159186058      5.15e-03  Done DIIS. Switching to GDM
 ---------------------------------------
  Cycle       Energy        RMS Gradient
 ---------------------------------------
    1   -1411.7159186058      2.75e-01   Descent step
    2   -1411.4133728977      1.05e+00  Line search: overstep
    3   -1411.7296221469      8.08e-02   Normal BFGS step
    4   -1411.7392383221      6.63e-02   Dog-leg BFGS step
    5   -1411.7578139131      1.44e-01   Normal BFGS step
    6   -1411.7672803103      7.38e-02   Normal BFGS step
    7   -1411.7601242980      1.21e-01  Line search: overstep
    8   -1411.7701573795      3.04e-02   Normal BFGS step
    9   -1411.7717138043      1.45e-02   Normal BFGS step
   10   -1411.7720256723      3.78e-03   Normal BFGS step
   11   -1411.7720523540      1.67e-03   Normal BFGS step
   12   -1411.7720591294      6.04e-04   Normal BFGS step
   13   -1411.7720603132      2.37e-04   Normal BFGS step
   14   -1411.7720605552      7.62e-05   Normal BFGS step
   15   -1411.7720605681      2.20e-05   Normal BFGS step
   16   -1411.7720605696      6.72e-06   Normal BFGS step
   17   -1411.7720605697      2.34e-06   Normal BFGS step
   18   -1411.7720605697      1.49e-06   Normal BFGS step
   19   -1411.7720605697      2.12e-06   Normal BFGS step
   20   -1411.7720605697      1.00e-07   Normal BFGS step
   21   -1411.7720605697      9.74e-08   Normal BFGS step
   22   -1411.7720605697      1.95e-08   Normal BFGS step
   23   -1411.7720605697      1.89e-08   Normal BFGS step
   24   -1411.7720605697      1.67e-08   Normal BFGS step
   25   -1411.7720605697      1.55e-09  Convergence criterion met
 ---------------------------------------
 SCF time:   CPU 45.93s  wall 4.00s 
<S^2> =          4.822487845
 SCF   energy in the final basis set =    -1411.7720605697
 Total energy in the final basis set =    -1411.7720605697
 
 --------------------------------------------------------------
             Orbital Energies (a.u.) and Symmetries
 --------------------------------------------------------------
 
 Alpha MOs, Unrestricted
 -- Occupied --                  
-257.19  -31.19  -27.05  -27.05  -27.04  -20.28  -20.27   -4.66
  1 A'    2 A'    3 A'    1 A"    4 A'    5 A'    6 A'    7 A'                 
 -3.433  -3.429  -3.429  -2.317  -1.819  -1.535  -1.535  -1.491
  8 A'    9 A'    2 A"   10 A'   11 A'    3 A"   12 A'   13 A'                 
 -1.432  -1.432  -1.372  -1.371  -1.331
 14 A'    4 A"   15 A'    5 A"   16 A'                                         
 -- Virtual --                   
 -1.050  -1.050  -0.856  -0.621  -0.430  -0.270  -0.088  -0.075
  6 A"   17 A'   18 A'   19 A'   20 A'   21 A'   22 A'    7 A"                 
 -0.011  -0.006  -0.004   0.085   0.094   0.137   0.183   0.191
 23 A'   24 A'    8 A"    9 A"   25 A'   26 A'   10 A"   27 A'                 
  0.360   0.492
 28 A'   29 A'                                                                 
 
 Beta MOs, Unrestricted
 -- Occupied --                  
-257.19  -31.10  -26.98  -26.98  -26.97  -20.31  -20.28   -4.45
  1 A'    2 A'    3 A'    1 A"    4 A'    5 A'    6 A'    7 A'                 
 -3.233  -3.206  -3.205  -2.346  -1.825  -1.548  -1.545  -1.518
  8 A'    9 A'    2 A"   10 A'   11 A'   12 A'    3 A"   13 A'                 
 -1.284  -1.284
  4 A"   14 A'                                                                 
 -- Virtual --                   
 -1.099  -1.099  -1.084  -1.073  -1.050  -0.827  -0.636  -0.426
 15 A'    5 A"   16 A'    6 A"   17 A'   18 A'   19 A'   20 A'                 
 -0.223  -0.085  -0.079  -0.016   0.063   0.064   0.095   0.096
 21 A'   22 A'    7 A"   23 A'   24 A'    8 A"   25 A'    9 A"                 
  0.111   0.198   0.226   0.353   0.523
 26 A'   10 A"   27 A'   28 A'   29 A'                                         
 --------------------------------------------------------------
 
          Ground-State Mulliken Net Atomic Charges

     Atom                 Charge (a.u.)    Spin (a.u.)
  --------------------------------------------------------
      1 O                     0.011491       0.104671
      2 O                     0.772724      -1.193977
      3 Fe                    2.215784       4.089307
  --------------------------------------------------------
  Sum of atomic charges =     3.000000
  Sum of spin   charges =     3.000000

 -----------------------------------------------------------------
                    Cartesian Multipole Moments
 -----------------------------------------------------------------
    Charge (ESU x 10^10)
                14.4096
    Dipole Moment (Debye)
         X      -1.4449      Y       0.7513      Z      -0.0000
       Tot       1.6285
    Quadrupole Moments (Debye-Ang)
        XX       2.3185     XY       0.0064     YY     -15.3079
        XZ       0.0000     YZ      -0.0000     ZZ     -15.2924
    Octopole Moments (Debye-Ang^2)
       XXX       0.5018    XXY       1.0019    XYY      -4.3615
       YYY       1.1421    XXZ       0.0000    XYZ       0.0000
       YYZ      -0.0000    XZZ      -4.3438    YZZ       0.3746
       ZZZ      -0.0000
    Hexadecapole Moments (Debye-Ang^3)
      XXXX     -79.1964   XXXY       0.6980   XXYY     -20.1255
      XYYY      -0.2195   YYYY      -9.6178   XXXZ       0.0000
      XXYZ      -0.0000   XYYZ       0.0000   YYYZ      -0.0000
      XXZZ     -19.9589   XYZZ      -0.0707   YYZZ      -2.8995
      XZZZ       0.0000   YZZZ      -0.0000   ZZZZ      -7.7829
 -----------------------------------------------------------------
 Calculating analytic gradient of the SCF energy
 Gradient of SCF Energy
            1           2           3
    1  -0.3046085  -0.1278826   0.4324911
    2   0.0541934  -0.0052845  -0.0489089
    3  -0.0000000   0.0000000  -0.0000000
 Max gradient component =       4.325E-01
 RMS gradient           =       1.830E-01
 Gradient time:  CPU 5.87 s  wall 0.57 s
 Geometry Optimization Parameters
   NAtoms,    NIC,     NZ,  NCons,   NDum,   NFix, NCnnct, MaxDiis
        3       9       0       0       0       0       0       0


** GEOMETRY OPTIMIZATION IN DELOCALIZED INTERNAL COORDINATES **
   Searching for a Minimum

   Optimization Cycle:   1

                       Coordinates (Angstroms)
     ATOM                X               Y               Z
      1  O         0.6761783239   -0.2217388475    0.0000000000
      2  O         1.7734850227    0.1254612018    0.0000000000
      3  Fe       -0.7537425682    0.0296238910    0.0000000000
   Point Group: cs    Number of degrees of freedom:     3


   Energy is  -1411.772060570


 Attempting to Generate Delocalized Internal Coordinates

 ** Taking Steepest Descent Step **
 Calculated Step too Large.  Step scaled by  0.655699
 Step Taken.  Stepsize is  0.300000

                             Maximum     Tolerance    Cnvgd?
         Gradient           0.304489      0.000300      NO
         Displacement       0.199653      0.001200      NO
         Energy change     *********      0.000001      NO


 New Cartesian Coordinates Obtained by Inverse Iteration

 Displacement from previous Coordinates is:  0.284992
 ----------------------------------------------------------------
             Standard Nuclear Orientation (Angstroms)
    I     Atom           X                Y                Z
 ----------------------------------------------------------------
    1      O       0.7114027462    -0.2129471981     0.0000000000
    2      O       1.8577681867     0.1201558109     0.0000000000
    3      Fe     -0.8732501544     0.0261376324     0.0000000000
 ----------------------------------------------------------------
 Molecular Point Group                 Cs    NOp =  2
 Largest Abelian Subgroup              Cs    NOp =  2
 Nuclear Repulsion Energy =   137.3311668163 hartrees
 There are       21 alpha and       18 beta electrons
 Applying Cartesian multipole field
    Component          Value
    ---------          -----
     (2,0,0)        1.00000E-11
     (0,2,0)        2.00000E-10
     (0,0,2)       -3.00000E-10
 Nucleus-field energy     =     0.0000000022 hartrees
 Requested basis set is VDZ
 There are 19 shells and 39 basis functions
 A cutoff of  1.0D-12 yielded    184 shell pairs
 There are       808 function pairs (       899 Cartesian)
 Smallest overlap matrix eigenvalue = 1.63E-02
 Guess MOs from SCF MO coefficient file

 -----------------------------------------------------------------------
  General SCF calculation program by
  Eric Jon Sundstrom, Paul Horn, Yuezhi Mao, Dmitri Zuev, Alec White,
  David Stuck, Shaama M.S., Shane Yost, Joonho Lee, David Small,
  Daniel Levine, Susi Lehtola, Hugh Burton, Evgeny Epifanovsky
 -----------------------------------------------------------------------
 Exchange:     0.2000 Hartree-Fock + 0.0800 Slater + 0.7200 B88
 Correlation:  0.1900 VWN1RPA + 0.8100 LYP
 Using SG-1 standard quadrature grid
 using 12 threads for integral computing
 -------------------------------------------------------
 OpenMP Integral computing Module                
 Release: version 1.0, May 2013, Q-Chem Inc. Pittsburgh 
 -------------------------------------------------------
 -------------------------------------------------------
 OpenMP BLAS3 based DFT computing Module                
 Release: version 1.0, May 2013, Q-Chem Inc. Pittsburgh 
 -------------------------------------------------------
 A unrestricted SCF calculation will be
 performed using DIIS, GDM
 SCF converges when RMS gradient is below 1.0e-08
 ---------------------------------------
  Cycle       Energy         DIIS error
 ---------------------------------------
    1   -1411.8546425722      3.92e-03  
    2   -1411.8516372780      4.96e-03  Done DIIS. Switching to GDM
 ---------------------------------------
  Cycle       Energy        RMS Gradient
 ---------------------------------------
    1   -1411.8516372780      1.43e-01   Descent step
    2   -1411.7412972295      5.20e-01  Line search: overstep
    3   -1411.8654686301      4.10e-02   Normal BFGS step
    4   -1411.8593896452      1.12e-01  Line search: overstep
    5   -1411.8660254232      1.05e-02   Normal BFGS step
    6   -1411.8662804038      2.48e-03   Normal BFGS step
    7   -1411.8663114431      1.40e-03   Normal BFGS step
    8   -1411.8663160777      3.46e-04   Normal BFGS step
    9   -1411.8663167480      3.44e-04   Normal BFGS step
   10   -1411.8663169546      1.84e-04   Normal BFGS step
   11   -1411.8663170303      7.64e-05   Normal BFGS step
   12   -1411.8663170598      3.56e-05   Normal BFGS step
   13   -1411.8663170651      8.95e-06   Normal BFGS step
   14   -1411.8663170656      2.24e-06   Normal BFGS step
   15   -1411.8663170656      6.37e-07   Normal BFGS step
   16   -1411.8663170656      1.76e-07   Normal BFGS step
   17   -1411.8663170656      5.90e-07   Normal BFGS step
   18   -1411.8663170656      5.34e-07   Normal BFGS step
   19   -1411.8663170656      2.65e-07   Normal BFGS step
   20   -1411.8663170656      1.21e-07   Normal BFGS step
   21   -1411.8663170656      3.34e-08   Normal BFGS step
   22   -1411.8663170656      5.38e-09  Convergence criterion met
 ---------------------------------------
 SCF time:   CPU 23.25s  wall 2.00s 
<S^2> =          4.989542823
 SCF   energy in the final basis set =    -1411.8663170656
 Total energy in the final basis set =    -1411.8663170656
 
 --------------------------------------------------------------
             Orbital Energies (a.u.) and Symmetries
 --------------------------------------------------------------
 
 Alpha MOs, Unrestricted
 -- Occupied --                  
-257.18  -31.18  -27.05  -27.04  -27.03  -20.25  -20.24   -4.64
  1 A'    2 A'    3 A'    1 A"    4 A'    5 A'    6 A'    7 A'                 
 -3.420  -3.416  -3.404  -2.229  -1.752  -1.470  -1.460  -1.454
  8 A'    2 A"    9 A'   10 A'   11 A'   12 A'    3 A"   13 A'                 
 -1.419  -1.419  -1.360  -1.359  -1.336
 14 A'    4 A"   15 A'    5 A"   16 A'                                         
 -- Virtual --                   
 -1.031  -1.031  -0.864  -0.659  -0.426  -0.261  -0.062  -0.050
  6 A"   17 A'   18 A'   19 A'   20 A'   21 A'   22 A'    7 A"                 
  0.012   0.013   0.035   0.088   0.100   0.160   0.238   0.242
 23 A'    8 A"   24 A'    9 A"   25 A'   26 A'   10 A"   27 A'                 
  0.354   0.459
 28 A'   29 A'                                                                 
 
 Beta MOs, Unrestricted
 -- Occupied --                  
-257.18  -31.09  -26.97  -26.97  -26.96  -20.29  -20.24   -4.43
  1 A'    2 A'    3 A'    1 A"    4 A'    5 A'    6 A'    7 A'                 
 -3.195  -3.188  -3.187  -2.265  -1.775  -1.495  -1.478  -1.470
  8 A'    9 A'    2 A"   10 A'   11 A'   12 A'    3 A"   13 A'                 
 -1.246  -1.244
 14 A'    4 A"                                                                 
 -- Virtual --                   
 -1.083  -1.083  -1.078  -1.075  -1.045  -0.838  -0.678  -0.423
 15 A'    5 A"   16 A'    6 A"   17 A'   18 A'   19 A'   20 A'                 
 -0.222  -0.053  -0.044   0.021   0.070   0.080   0.102   0.103
 21 A'   22 A'    7 A"   23 A'    8 A"   24 A'    9 A"   25 A'                 
  0.141   0.248   0.258   0.364   0.483
 26 A'   10 A"   27 A'   28 A'   29 A'                                         
 --------------------------------------------------------------
 
          Ground-State Mulliken Net Atomic Charges

     Atom                 Charge (a.u.)    Spin (a.u.)
  --------------------------------------------------------
      1 O                    -0.020793       0.043165
      2 O                     0.780105      -1.259039
      3 Fe                    2.240688       4.215874
  --------------------------------------------------------
  Sum of atomic charges =     3.000000
  Sum of spin   charges =     3.000000

 -----------------------------------------------------------------
                    Cartesian Multipole Moments
 -----------------------------------------------------------------
    Charge (ESU x 10^10)
                14.4096
    Dipole Moment (Debye)
         X      -2.4026      Y       0.7274      Z       0.0000
       Tot       2.5103
    Quadrupole Moments (Debye-Ang)
        XX       5.8467     XY       0.1064     YY     -15.3728
        XZ      -0.0000     YZ       0.0000     ZZ     -15.3808
    Octopole Moments (Debye-Ang^2)
       XXX       2.0203    XXY       1.2884    XYY      -4.1377
       YYY       1.2141    XXZ      -0.0000    XYZ      -0.0000
       YYZ      -0.0000    XZZ      -4.1187    YZZ       0.3969
       ZZZ       0.0000
    Hexadecapole Moments (Debye-Ang^3)
      XXXX     -85.2945   XXXY       1.1645   XXYY     -22.8119
      XYYY      -0.0950   YYYY      -9.5313   XXXZ      -0.0000
      XXYZ      -0.0000   XYYZ      -0.0000   YYYZ       0.0000
      XXZZ     -22.7049   XYZZ      -0.0339   YYZZ      -2.8958
      XZZZ      -0.0000   YZZZ       0.0000   ZZZZ      -7.8480
 -----------------------------------------------------------------
 Calculating analytic gradient of the SCF energy
 Gradient of SCF Energy
            1           2           3
    1  -0.1476437  -0.0438812   0.1915249
    2  -0.0003964   0.0115456  -0.0111492
    3   0.0000000  -0.0000000  -0.0000000
 Max gradient component =       1.915E-01
 RMS gradient           =       8.210E-02
 Gradient time:  CPU 5.75 s  wall 0.52 s
 Geometry Optimization Parameters
   NAtoms,    NIC,     NZ,  NCons,   NDum,   NFix, NCnnct, MaxDiis
        3       9       0       0       0       0       0       0

 Cartesian Hessian Update
 Hessian Updated using BFGS Update


** GEOMETRY OPTIMIZATION IN DELOCALIZED INTERNAL COORDINATES **
   Searching for a Minimum

   Optimization Cycle:   2

                       Coordinates (Angstroms)
     ATOM                X               Y               Z
      1  O         0.7114027462   -0.2129471981    0.0000000000
      2  O         1.8577681867    0.1201558109    0.0000000000
      3  Fe       -0.8732501544    0.0261376324    0.0000000000
   Point Group: cs    Number of degrees of freedom:     3


   Energy is  -1411.866317066

 Hessian Updated using BFGS Update

  3 Hessian modes will be used to form the next step
  Hessian Eigenvalues:
     0.252429    0.859760    1.308152

 Minimum Search - Taking Simple RFO Step
 Searching for Lamda that Minimizes Along All modes
 Value Taken    Lamda =  -0.04917349
 Step Taken.  Stepsize is  0.261401

                             Maximum     Tolerance    Cnvgd?
         Gradient           0.143512      0.000300      NO
         Displacement       0.231095      0.001200      NO
         Energy change     -0.094256      0.000001      NO


 New Cartesian Coordinates Obtained by Inverse Iteration

 Displacement from previous Coordinates is:  0.275343
 ----------------------------------------------------------------
             Standard Nuclear Orientation (Angstroms)
    I     Atom           X                Y                Z
 ----------------------------------------------------------------
    1      O       0.7363336715    -0.1480249431     0.0000000000
    2      O       1.9287484966     0.0827495801     0.0000000000
    3      Fe     -0.9691613897    -0.0013783917     0.0000000000
 ----------------------------------------------------------------
 Molecular Point Group                 Cs    NOp =  2
 Largest Abelian Subgroup              Cs    NOp =  2
 Nuclear Repulsion Energy =   130.1515627254 hartrees
 There are       21 alpha and       18 beta electrons
 Applying Cartesian multipole field
    Component          Value
    ---------          -----
     (2,0,0)        1.00000E-11
     (0,2,0)        2.00000E-10
     (0,0,2)       -3.00000E-10
 Nucleus-field energy     =     0.0000000023 hartrees
 Requested basis set is VDZ
 There are 19 shells and 39 basis functions
 A cutoff of  1.0D-12 yielded    182 shell pairs
 There are       800 function pairs (       890 Cartesian)
 Smallest overlap matrix eigenvalue = 1.82E-02
 Guess MOs from SCF MO coefficient file

 -----------------------------------------------------------------------
  General SCF calculation program by
  Eric Jon Sundstrom, Paul Horn, Yuezhi Mao, Dmitri Zuev, Alec White,
  David Stuck, Shaama M.S., Shane Yost, Joonho Lee, David Small,
  Daniel Levine, Susi Lehtola, Hugh Burton, Evgeny Epifanovsky
 -----------------------------------------------------------------------
 Exchange:     0.2000 Hartree-Fock + 0.0800 Slater + 0.7200 B88
 Correlation:  0.1900 VWN1RPA + 0.8100 LYP
 Using SG-1 standard quadrature grid
 using 12 threads for integral computing
 -------------------------------------------------------
 OpenMP Integral computing Module                
 Release: version 1.0, May 2013, Q-Chem Inc. Pittsburgh 
 -------------------------------------------------------
 -------------------------------------------------------
 OpenMP BLAS3 based DFT computing Module                
 Release: version 1.0, May 2013, Q-Chem Inc. Pittsburgh 
 -------------------------------------------------------
 A unrestricted SCF calculation will be
 performed using DIIS, GDM
 SCF converges when RMS gradient is below 1.0e-08
 ---------------------------------------
  Cycle       Energy         DIIS error
 ---------------------------------------
    1   -1411.8894148040      3.14e-03  
    2   -1411.8936794564      3.52e-03  Done DIIS. Switching to GDM
 ---------------------------------------
  Cycle       Energy        RMS Gradient
 ---------------------------------------
    1   -1411.8936794564      1.48e-01   Normal BFGS step
    2   -1411.7849765183      4.47e-01  Line search: overstep
    3   -1411.9010390569      3.68e-02   Normal BFGS step
    4   -1411.8981943855      7.55e-02  Line search: overstep
    5   -1411.9014488961      1.15e-02   Normal BFGS step
    6   -1411.9017942769      5.16e-03   Normal BFGS step
    7   -1411.9018335367      3.01e-03   Normal BFGS step
    8   -1411.9018438895      5.17e-04   Normal BFGS step
    9   -1411.9018447480      2.08e-04   Normal BFGS step
   10   -1411.9018448908      8.92e-05   Normal BFGS step
   11   -1411.9018449159      8.23e-05   Normal BFGS step
   12   -1411.9018449581      7.58e-05   Normal BFGS step
   13   -1411.9018449871      4.94e-05   Normal BFGS step
   14   -1411.9018450033      3.14e-05   Normal BFGS step
   15   -1411.9018450069      1.75e-05   Normal BFGS step
   16   -1411.9018450077      7.87e-06   Normal BFGS step
   17   -1411.9018450079      2.60e-06   Normal BFGS step
   18   -1411.9018450079      5.68e-07   Normal BFGS step
   19   -1411.9018450079      1.26e-07   Normal BFGS step
   20   -1411.9018450079      2.99e-07   Normal BFGS step
   21   -1411.9018450079      5.02e-07   Normal BFGS step
   22   -1411.9018450079      1.13e-07   Normal BFGS step
   23   -1411.9018450079      2.67e-07   Normal BFGS step
   24   -1411.9018450079      3.48e-09  Convergence criterion met
 ---------------------------------------
 SCF time:   CPU 25.09s  wall 3.00s 
<S^2> =          5.040123576
 SCF   energy in the final basis set =    -1411.9018450079
 Total energy in the final basis set =    -1411.9018450079
 
 --------------------------------------------------------------
             Orbital Energies (a.u.) and Symmetries
 --------------------------------------------------------------
 
 Alpha MOs, Unrestricted
 -- Occupied --                  
-257.18  -31.17  -27.04  -27.03  -27.02  -20.23  -20.21   -4.63
  1 A'    2 A'    3 A'    1 A"    4 A'    5 A'    6 A'    7 A'                 
 -3.407  -3.403  -3.388  -2.181  -1.712  -1.443  -1.421  -1.421
  8 A'    2 A"    9 A'   10 A'   11 A'   12 A'   13 A'    3 A"                 
 -1.407  -1.407  -1.347  -1.346  -1.335
  4 A"   14 A'   15 A'    5 A"   16 A'                                         
 -- Virtual --                   
 -1.016  -1.015  -0.868  -0.668  -0.423  -0.230  -0.049  -0.044
  6 A"   17 A'   18 A'   19 A'   20 A'   21 A'   22 A'    7 A"                 
  0.025   0.026   0.058   0.097   0.103   0.182   0.270   0.270
 23 A'    8 A"   24 A'    9 A"   25 A'   26 A'   27 A'   10 A"                 
  0.312   0.446
 28 A'   29 A'                                                                 
 
 Beta MOs, Unrestricted
 -- Occupied --                  
-257.18  -31.08  -26.96  -26.96  -26.95  -20.27  -20.21   -4.41
  1 A'    2 A'    3 A'    1 A"    4 A'    5 A'    6 A'    7 A'                 
 -3.175  -3.174  -3.173  -2.219  -1.742  -1.464  -1.441  -1.440
  8 A'    9 A'    2 A"   10 A'   11 A'   12 A'    3 A"   13 A'                 
 -1.217  -1.216
 14 A'    4 A"                                                                 
 -- Virtual --                   
 -1.075  -1.073  -1.069  -1.069  -1.038  -0.844  -0.688  -0.420
  5 A"   15 A'    6 A"   16 A'   17 A'   18 A'   19 A'   20 A'                 
 -0.197  -0.035  -0.030   0.041   0.075   0.080   0.112   0.112
 21 A'   22 A'    7 A"   23 A'    8 A"   24 A'    9 A"   25 A'                 
  0.174   0.277   0.279   0.339   0.456
 26 A'   27 A'   10 A"   28 A'   29 A'                                         
 --------------------------------------------------------------
 
          Ground-State Mulliken Net Atomic Charges

     Atom                 Charge (a.u.)    Spin (a.u.)
  --------------------------------------------------------
      1 O                    -0.023331       0.006867
      2 O                     0.777075      -1.259119
      3 Fe                    2.246256       4.252252
  --------------------------------------------------------
  Sum of atomic charges =     3.000000
  Sum of spin   charges =     3.000000

 -----------------------------------------------------------------
                    Cartesian Multipole Moments
 -----------------------------------------------------------------
    Charge (ESU x 10^10)
                14.4096
    Dipole Moment (Debye)
         X      -3.1172      Y       0.2997      Z       0.0000
       Tot       3.1316
    Quadrupole Moments (Debye-Ang)
        XX       8.8563     XY       0.3079     YY     -15.4151
        XZ       0.0000     YZ      -0.0000     ZZ     -15.4134
    Octopole Moments (Debye-Ang^2)
       XXX       2.8171    XXY       0.9913    XYY      -3.9365
       YYY       1.2651    XXZ       0.0000    XYZ      -0.0000
       YYZ       0.0000    XZZ      -3.8893    YZZ       0.4177
       ZZZ       0.0000
    Hexadecapole Moments (Debye-Ang^3)
      XXXX     -89.8379   XXXY       0.8552   XXYY     -25.1767
      XYYY      -0.3892   YYYY      -8.6763   XXXZ       0.0000
      XXYZ      -0.0000   XYYZ       0.0000   YYYZ      -0.0000
      XXZZ     -25.1190   XYZZ      -0.1313   YYZZ      -2.7570
      XZZZ       0.0000   YZZZ      -0.0000   ZZZZ      -7.8696
 -----------------------------------------------------------------
 Calculating analytic gradient of the SCF energy
 Gradient of SCF Energy
            1           2           3
    1  -0.0922890  -0.0021842   0.0944732
    2  -0.0124071   0.0118403   0.0005668
    3  -0.0000000   0.0000000  -0.0000000
 Max gradient component =       9.447E-02
 RMS gradient           =       4.440E-02
 Gradient time:  CPU 5.87 s  wall 0.53 s
 Geometry Optimization Parameters
   NAtoms,    NIC,     NZ,  NCons,   NDum,   NFix, NCnnct, MaxDiis
        3       9       0       0       0       0       0       0

 Cartesian Hessian Update
 Hessian Updated using BFGS Update


** GEOMETRY OPTIMIZATION IN DELOCALIZED INTERNAL COORDINATES **
   Searching for a Minimum

   Optimization Cycle:   3

                       Coordinates (Angstroms)
     ATOM                X               Y               Z
      1  O         0.7363336715   -0.1480249431    0.0000000000
      2  O         1.9287484966    0.0827495801    0.0000000000
      3  Fe       -0.9691613897   -0.0013783917    0.0000000000
   Point Group: cs    Number of degrees of freedom:     3


   Energy is  -1411.901845008

 Hessian Updated using BFGS Update

  3 Hessian modes will be used to form the next step
  Hessian Eigenvalues:
     0.223191    0.530197    1.332315

 Minimum Search - Taking Simple RFO Step
 Searching for Lamda that Minimizes Along All modes
 Value Taken    Lamda =  -0.02188651
 Step Taken.  Stepsize is  0.240946

                             Maximum     Tolerance    Cnvgd?
         Gradient           0.066300      0.000300      NO
         Displacement       0.205529      0.001200      NO
         Energy change     -0.035528      0.000001      NO


 New Cartesian Coordinates Obtained by Inverse Iteration

 Displacement from previous Coordinates is:  0.241435
 ----------------------------------------------------------------
             Standard Nuclear Orientation (Angstroms)
    I     Atom           X                Y                Z
 ----------------------------------------------------------------
    1      O       0.7645436084    -0.0791168145     0.0000000000
    2      O       1.9776222966     0.0422047996     0.0000000000
    3      Fe     -1.0462451265    -0.0297417399     0.0000000000
 ----------------------------------------------------------------
 Molecular Point Group                 Cs    NOp =  2
 Largest Abelian Subgroup              Cs    NOp =  2
 Nuclear Repulsion Energy =   124.9321002429 hartrees
 There are       21 alpha and       18 beta electrons
 Applying Cartesian multipole field
    Component          Value
    ---------          -----
     (2,0,0)        1.00000E-11
     (0,2,0)        2.00000E-10
     (0,0,2)       -3.00000E-10
 Nucleus-field energy     =     0.0000000024 hartrees
 Requested basis set is VDZ
 There are 19 shells and 39 basis functions
 A cutoff of  1.0D-12 yielded    180 shell pairs
 There are       788 function pairs (       878 Cartesian)
 Smallest overlap matrix eigenvalue = 1.88E-02
 Guess MOs from SCF MO coefficient file

 -----------------------------------------------------------------------
  General SCF calculation program by
  Eric Jon Sundstrom, Paul Horn, Yuezhi Mao, Dmitri Zuev, Alec White,
  David Stuck, Shaama M.S., Shane Yost, Joonho Lee, David Small,
  Daniel Levine, Susi Lehtola, Hugh Burton, Evgeny Epifanovsky
 -----------------------------------------------------------------------
 Exchange:     0.2000 Hartree-Fock + 0.0800 Slater + 0.7200 B88
 Correlation:  0.1900 VWN1RPA + 0.8100 LYP
 Using SG-1 standard quadrature grid
 using 12 threads for integral computing
 -------------------------------------------------------
 OpenMP Integral computing Module                
 Release: version 1.0, May 2013, Q-Chem Inc. Pittsburgh 
 -------------------------------------------------------
 -------------------------------------------------------
 OpenMP BLAS3 based DFT computing Module                
 Release: version 1.0, May 2013, Q-Chem Inc. Pittsburgh 
 -------------------------------------------------------
 A unrestricted SCF calculation will be
 performed using DIIS, GDM
 SCF converges when RMS gradient is below 1.0e-08
 ---------------------------------------
  Cycle       Energy         DIIS error
 ---------------------------------------
    1   -1411.9068155940      2.69e-03  
    2   -1411.9091843956      3.44e-03  Done DIIS. Switching to GDM
 ---------------------------------------
  Cycle       Energy        RMS Gradient
 ---------------------------------------
    1   -1411.9091843956      1.71e-01   Normal BFGS step
    2   -1411.7646084052      4.03e-01  Line search: overstep
    3   -1411.9162715577      5.16e-02   Normal BFGS step
    4   -1411.9124785162      9.44e-02  Line search: overstep
    5   -1411.9167613911      2.28e-02   Normal BFGS step
    6   -1411.9171679914      9.30e-03   Normal BFGS step
    7   -1411.9172204967      5.97e-03   Normal BFGS step
    8   -1411.9172550835      2.67e-03   Normal BFGS step
    9   -1411.9172732271      4.20e-03   Normal BFGS step
   10   -1411.9173908731      7.10e-03   Normal BFGS step
   11   -1411.9165231513      3.68e-02  Line search: overstep
   12   -1411.9174275634      8.28e-03   Normal BFGS step
   13   -1411.9174939163      1.05e-02   Normal BFGS step
   14   -1411.9176783266      8.10e-03   Normal BFGS step
   15   -1411.9178065677      6.03e-03   Normal BFGS step
   16   -1411.9178503203      1.72e-03   Normal BFGS step
   17   -1411.9178546648      1.34e-03   Normal BFGS step
   18   -1411.9178596751      2.69e-04   Normal BFGS step
   19   -1411.9178601053      1.35e-04   Normal BFGS step
   20   -1411.9178601823      6.22e-05   Normal BFGS step
   21   -1411.9178601852      2.29e-05   Normal BFGS step
   22   -1411.9178601861      4.83e-06   Normal BFGS step
   23   -1411.9178601862      4.42e-06   Normal BFGS step
   24   -1411.9178601862      9.78e-07   Normal BFGS step
   25   -1411.9178601862      2.64e-06   Normal BFGS step
   26   -1411.9178601862      2.98e-07   Normal BFGS step
   27   -1411.9178601862      7.88e-07   Normal BFGS step
   28   -1411.9178601862      2.42e-08   Normal BFGS step
   29   -1411.9178601862      1.60e-08   Normal BFGS step
   30   -1411.9178601862      2.88e-09  Convergence criterion met
 ---------------------------------------
 SCF time:   CPU 31.20s  wall 3.00s 
<S^2> =          5.016614659
 SCF   energy in the final basis set =    -1411.9178601862
 Total energy in the final basis set =    -1411.9178601862
 
 --------------------------------------------------------------
             Orbital Energies (a.u.) and Symmetries
 --------------------------------------------------------------
 
 Alpha MOs, Unrestricted
 -- Occupied --                  
-257.15  -31.14  -27.02  -27.00  -27.00  -20.23  -20.20   -4.60
  1 A'    2 A'    3 A'    1 A"    4 A'    5 A'    6 A'    7 A'                 
 -3.398  -3.369  -3.362  -2.163  -1.683  -1.426  -1.397  -1.391
  8 A'    2 A"    9 A'   10 A'   11 A'   12 A'   13 A'    3 A"                 
 -1.387  -1.387  -1.333  -1.331  -1.327
 14 A'    4 A"   15 A'    5 A"   16 A'                                         
 -- Virtual --                   
 -1.016  -0.999  -0.868  -0.664  -0.421  -0.179  -0.043  -0.041
  6 A"   17 A'   18 A'   19 A'   20 A'   21 A'    7 A"   22 A'                 
  0.040   0.040   0.069   0.105   0.110   0.195   0.262   0.286
 23 A'    8 A"   24 A'    9 A"   25 A'   26 A'   27 A'   10 A"                 
  0.289   0.430
 28 A'   29 A'                                                                 
 
 Beta MOs, Unrestricted
 -- Occupied --                  
-257.15  -31.06  -26.94  -26.93  -26.93  -20.26  -20.20   -4.39
  1 A'    2 A'    3 A'    1 A"    4 A'    5 A'    6 A'    7 A'                 
 -3.156  -3.152  -3.151  -2.201  -1.718  -1.445  -1.430  -1.416
  8 A'    9 A'    2 A"   10 A'   11 A'   12 A'   13 A'    3 A"                 
 -1.200  -1.194
 14 A'    4 A"                                                                 
 -- Virtual --                   
 -1.076  -1.054  -1.052  -1.051  -1.019  -0.845  -0.684  -0.418
  5 A"   15 A'   16 A'    6 A"   17 A'   18 A'   19 A'   20 A'                 
 -0.154  -0.028  -0.024   0.054   0.081   0.084   0.125   0.126
 21 A'   22 A'    7 A"   23 A'    8 A"   24 A'    9 A"   25 A'                 
  0.194   0.292   0.296   0.305   0.428
 26 A'   27 A'   10 A"   28 A'   29 A'                                         
 --------------------------------------------------------------
 
          Ground-State Mulliken Net Atomic Charges

     Atom                 Charge (a.u.)    Spin (a.u.)
  --------------------------------------------------------
      1 O                     0.004847      -0.051146
      2 O                     0.771022      -1.186623
      3 Fe                    2.224131       4.237769
  --------------------------------------------------------
  Sum of atomic charges =     3.000000
  Sum of spin   charges =     3.000000

 -----------------------------------------------------------------
                    Cartesian Multipole Moments
 -----------------------------------------------------------------
    Charge (ESU x 10^10)
                14.4096
    Dipole Moment (Debye)
         X      -3.5310      Y      -0.1618      Z       0.0000
       Tot       3.5348
    Quadrupole Moments (Debye-Ang)
        XX      11.1235     XY       0.5220     YY     -15.4224
        XZ       0.0000     YZ      -0.0000     ZZ     -15.3747
    Octopole Moments (Debye-Ang^2)
       XXX       3.0501    XXY       0.4198    XYY      -4.0196
       YYY       1.2903    XXZ       0.0000    XYZ      -0.0000
       YYZ       0.0000    XZZ      -3.3547    YZZ       0.4269
       ZZZ      -0.0000
    Hexadecapole Moments (Debye-Ang^3)
      XXXX     -94.0668   XXXY       0.3951   XXYY     -27.3121
      XYYY      -0.7575   YYYY      -8.1503   XXXZ       0.0000
      XXYZ      -0.0000   XYYZ       0.0000   YYYZ      -0.0000
      XXZZ     -26.9931   XYZZ      -0.2575   YYZZ      -2.6594
      XZZZ      -0.0000   YZZZ      -0.0000   ZZZZ      -7.8161
 -----------------------------------------------------------------
 Calculating analytic gradient of the SCF energy
 Gradient of SCF Energy
            1           2           3
    1  -0.0778624   0.0204134   0.0574489
    2  -0.0079973   0.0064503   0.0015470
    3   0.0000000  -0.0000000  -0.0000000
 Max gradient component =       7.786E-02
 RMS gradient           =       3.315E-02
 Gradient time:  CPU 5.74 s  wall 0.52 s
 Geometry Optimization Parameters
   NAtoms,    NIC,     NZ,  NCons,   NDum,   NFix, NCnnct, MaxDiis
        3       9       0       0       0       0       0       0

 Cartesian Hessian Update
 Hessian Updated using BFGS Update


** GEOMETRY OPTIMIZATION IN DELOCALIZED INTERNAL COORDINATES **
   Searching for a Minimum

   Optimization Cycle:   4

                       Coordinates (Angstroms)
     ATOM                X               Y               Z
      1  O         0.7645436084   -0.0791168145    0.0000000000
      2  O         1.9776222966    0.0422047996    0.0000000000
      3  Fe       -1.0462451265   -0.0297417399    0.0000000000
   Point Group: cs    Number of degrees of freedom:     3


   Energy is  -1411.917860186

 Hessian Updated using BFGS Update

  3 Hessian modes will be used to form the next step
  Hessian Eigenvalues:
     0.153444    0.352609    1.372782

 Minimum Search - Taking Simple RFO Step
 Searching for Lamda that Minimizes Along All modes
 Value Taken    Lamda =  -0.01610867
 Step Taken.  Stepsize is  0.285489

                             Maximum     Tolerance    Cnvgd?
         Gradient           0.055285      0.000300      NO
         Displacement       0.211492      0.001200      NO
         Energy change     -0.016015      0.000001      NO


 New Cartesian Coordinates Obtained by Inverse Iteration

  ***ERROR*** Exceeded allowed number of iterative cycles in GetCART
**WARNING** Problems with Internal Coordinates
  Switching to Cartesian Coordinates

 Translations and Rotations Projected Out of Hessian

  3 Hessian modes will be used to form the next step
  Hessian Eigenvalues:
     0.149448    0.867544    1.785430

 Minimum Search - Taking Simple RFO Step
 Searching for Lamda that Minimizes Along All modes
 Value Taken    Lamda =  -0.02074066
 Calculated Step too Large.  Step scaled by  0.990312
 Step Taken.  Stepsize is  0.300000

                             Maximum     Tolerance    Cnvgd?
         Gradient           0.077862      0.000300      NO
         Displacement       0.175850      0.001200      NO
         Energy change     -0.016015      0.000001      NO

 ----------------------------------------------------------------
             Standard Nuclear Orientation (Angstroms)
    I     Atom           X                Y                Z
 ----------------------------------------------------------------
    1      O       0.8289780344     0.0081012287     0.0000000000
    2      O       2.0062438662    -0.0103952848     0.0000000000
    3      Fe     -1.1393011222    -0.0643596987     0.0000000000
 ----------------------------------------------------------------
 Molecular Point Group                 Cs    NOp =  2
 Largest Abelian Subgroup              Cs    NOp =  2
 Nuclear Repulsion Energy =   119.6345899753 hartrees
 There are       21 alpha and       18 beta electrons
 Applying Cartesian multipole field
    Component          Value
    ---------          -----
     (2,0,0)        1.00000E-11
     (0,2,0)        2.00000E-10
     (0,0,2)       -3.00000E-10
 Nucleus-field energy     =     0.0000000026 hartrees
 Requested basis set is VDZ
 There are 19 shells and 39 basis functions
 A cutoff of  1.0D-12 yielded    180 shell pairs
 There are       788 function pairs (       878 Cartesian)
 Smallest overlap matrix eigenvalue = 1.60E-02
 Guess MOs from SCF MO coefficient file

 -----------------------------------------------------------------------
  General SCF calculation program by
  Eric Jon Sundstrom, Paul Horn, Yuezhi Mao, Dmitri Zuev, Alec White,
  David Stuck, Shaama M.S., Shane Yost, Joonho Lee, David Small,
  Daniel Levine, Susi Lehtola, Hugh Burton, Evgeny Epifanovsky
 -----------------------------------------------------------------------
 Exchange:     0.2000 Hartree-Fock + 0.0800 Slater + 0.7200 B88
 Correlation:  0.1900 VWN1RPA + 0.8100 LYP
 Using SG-1 standard quadrature grid
 using 12 threads for integral computing
 -------------------------------------------------------
 OpenMP Integral computing Module                
 Release: version 1.0, May 2013, Q-Chem Inc. Pittsburgh 
 -------------------------------------------------------
 -------------------------------------------------------
 OpenMP BLAS3 based DFT computing Module                
 Release: version 1.0, May 2013, Q-Chem Inc. Pittsburgh 
 -------------------------------------------------------
 A unrestricted SCF calculation will be
 performed using DIIS, GDM
 SCF converges when RMS gradient is below 1.0e-08
 ---------------------------------------
  Cycle       Energy         DIIS error
 ---------------------------------------
    1   -1411.9118315371      3.62e-03  
    2   -1411.9214007404      3.87e-03  Done DIIS. Switching to GDM
 ---------------------------------------
  Cycle       Energy        RMS Gradient
 ---------------------------------------
    1   -1411.9214007404      2.25e-01   Descent step
    2   -1411.6977632821      4.30e-01  Line search: overstep
    3   -1411.9301876256      6.79e-02   Normal BFGS step
    4   -1411.9242652010      1.25e-01  Line search: overstep
    5   -1411.9314234206      2.89e-02   Normal BFGS step
    6   -1411.9334836592      2.62e-02   Normal BFGS step
    7   -1411.9342487105      3.05e-02   Normal BFGS step
    8   -1411.9344825202      4.01e-03   Normal BFGS step
    9   -1411.9345149865      1.31e-03   Normal BFGS step
   10   -1411.9345215427      1.12e-03   Normal BFGS step
   11   -1411.9345244289      9.35e-04   Normal BFGS step
   12   -1411.9345270460      6.27e-04   Normal BFGS step
   13   -1411.9345284764      5.10e-04   Normal BFGS step
   14   -1411.9345293535      4.14e-04   Normal BFGS step
   15   -1411.9345297610      3.52e-04   Normal BFGS step
   16   -1411.9345298905      1.53e-04   Normal BFGS step
   17   -1411.9345299101      3.51e-05   Normal BFGS step
   18   -1411.9345299116      5.56e-06   Normal BFGS step
   19   -1411.9345299117      8.23e-07   Normal BFGS step
   20   -1411.9345299117      5.50e-07   Normal BFGS step
   21   -1411.9345299117      5.68e-07   Normal BFGS step
   22   -1411.9345299117      4.41e-08   Normal BFGS step
   23   -1411.9345299117      1.96e-08   Normal BFGS step
   24   -1411.9345299117      5.27e-08   Normal BFGS step
   25   -1411.9345299117      2.48e-08   Normal BFGS step
  /scratch/qcdevops/jenkins/workspace/build_qchem_linux_distrib/tags/qc511/qchem/libgscf/libgscf/opt/gdm.C::WARNING energy changes are now smaller than effective accuracy.
  /scratch/qcdevops/jenkins/workspace/build_qchem_linux_distrib/tags/qc511/qchem/libgscf/libgscf/opt/gdm.C::        calculation will continue, but THRESH should be increased
  /scratch/qcdevops/jenkins/workspace/build_qchem_linux_distrib/tags/qc511/qchem/libgscf/libgscf/opt/gdm.C::        or SCF_CONVERGENCE decreased. 
  /scratch/qcdevops/jenkins/workspace/build_qchem_linux_distrib/tags/qc511/qchem/libgscf/libgscf/opt/gdm.C::        effective_thresh = 8.99e-09
   26   -1411.9345299117      1.04e-08   Normal BFGS step
   27   -1411.9345299117      6.80e-10  Convergence criterion met
 ---------------------------------------
 SCF time:   CPU 28.22s  wall 3.00s 
<S^2> =          4.882021106
 SCF   energy in the final basis set =    -1411.9345299117
 Total energy in the final basis set =    -1411.9345299117
 
 --------------------------------------------------------------
             Orbital Energies (a.u.) and Symmetries
 --------------------------------------------------------------
 
 Alpha MOs, Unrestricted
 -- Occupied --                  
-257.09  -31.08  -26.96  -26.94  -26.93  -20.23  -20.20   -4.55
  1 A'    2 A'    3 A'    1 A"    4 A'    5 A'    6 A'    7 A'                 
 -3.360  -3.308  -3.308  -2.207  -1.651  -1.410  -1.391  -1.367
  8 A'    2 A"    9 A'   10 A'   11 A'   12 A'    3 A"   13 A'                 
 -1.345  -1.342  -1.328  -1.301  -1.288
 14 A'    4 A"   15 A'   16 A'    5 A"                                         
 -- Virtual --                   
 -1.017  -0.983  -0.862  -0.606  -0.418  -0.077  -0.041  -0.037
  6 A"   17 A'   18 A'   19 A'   20 A'   21 A'    7 A"   22 A'                 
  0.067   0.067   0.076   0.108   0.118   0.174   0.196   0.295
  8 A"   23 A'   24 A'    9 A"   25 A'   26 A'   27 A'   10 A"                 
  0.299   0.425
 28 A'   29 A'                                                                 
 
 Beta MOs, Unrestricted
 -- Occupied --                  
-257.09  -31.00  -26.88  -26.87  -26.87  -20.26  -20.21   -4.35
  1 A'    2 A'    3 A'    1 A"    4 A'    5 A'    6 A'    7 A'                 
 -3.115  -3.106  -3.105  -2.242  -1.690  -1.446  -1.434  -1.418
  8 A'    9 A'    2 A"   10 A'   11 A'   12 A'   13 A'    3 A"                 
 -1.181  -1.163
 14 A'    4 A"                                                                 
 -- Virtual --                   
 -1.062  -1.019  -1.012  -1.011  -0.976  -0.838  -0.628  -0.414
  5 A"   15 A'   16 A'    6 A"   17 A'   18 A'   19 A'   20 A'                 
 -0.076  -0.030  -0.028   0.067   0.092   0.092   0.153   0.153
 21 A'   22 A'    7 A"   23 A'    8 A"   24 A'    9 A"   25 A'                 
  0.188   0.246   0.307   0.312   0.416
 26 A'   27 A'   10 A"   28 A'   29 A'                                         
 --------------------------------------------------------------
 
          Ground-State Mulliken Net Atomic Charges

     Atom                 Charge (a.u.)    Spin (a.u.)
  --------------------------------------------------------
      1 O                     0.116675      -0.214087
      2 O                     0.740801      -0.937825
      3 Fe                    2.142524       4.151912
  --------------------------------------------------------
  Sum of atomic charges =     3.000000
  Sum of spin   charges =     3.000000

 -----------------------------------------------------------------
                    Cartesian Multipole Moments
 -----------------------------------------------------------------
    Charge (ESU x 10^10)
                14.4096
    Dipole Moment (Debye)
         X      -3.7156      Y      -0.6861      Z      -0.0000
       Tot       3.7785
    Quadrupole Moments (Debye-Ang)
        XX      13.0411     XY       0.7142     YY     -15.2810
        XZ      -0.0000     YZ      -0.0000     ZZ     -15.2340
    Octopole Moments (Debye-Ang^2)
       XXX       1.9188    XXY      -0.4828    XYY      -3.9021
       YYY       1.3100    XXZ      -0.0000    XYZ      -0.0000
       YYZ      -0.0000    XZZ      -2.5800    YZZ       0.4675
       ZZZ       0.0000
    Hexadecapole Moments (Debye-Ang^3)
      XXXX    -103.6803   XXXY      -0.6605   XXYY     -29.7412
      XYYY      -1.2995   YYYY      -7.9250   XXXZ      -0.0000
      XXYZ      -0.0000   XYYZ       0.0000   YYYZ      -0.0000
      XXZZ     -29.1388   XYZZ      -0.4752   YYZZ      -2.5980
      XZZZ       0.0000   YZZZ      -0.0000   ZZZZ      -7.6506
 -----------------------------------------------------------------
 Calculating analytic gradient of the SCF energy
 Gradient of SCF Energy
            1           2           3
    1  -0.0401072  -0.0054131   0.0455203
    2   0.0007930  -0.0013994   0.0006064
    3  -0.0000000  -0.0000000   0.0000000
 Max gradient component =       4.552E-02
 RMS gradient           =       2.031E-02
 Gradient time:  CPU 5.74 s  wall 0.52 s
 Geometry Optimization Parameters
   NAtoms,    NIC,     NZ,  NCons,   NDum,   NFix, NCnnct, MaxDiis
        3       9       0       0       0       0       0       0

 Cartesian Hessian Update
 Hessian Updated using BFGS Update


** GEOMETRY OPTIMIZATION IN CARTESIAN COORDINATES **
   Searching for a Minimum

   Optimization Cycle:   5

                       Coordinates (Angstroms)
     ATOM                X               Y               Z
      1  O         0.8289780344    0.0081012287    0.0000000000
      2  O         2.0062438662   -0.0103952848    0.0000000000
      3  Fe       -1.1393011222   -0.0643596987    0.0000000000
   Point Group: cs    Number of degrees of freedom:     3


   Energy is  -1411.934529912


 Translations and Rotations Projected Out of Hessian

  3 Hessian modes will be used to form the next step
  Hessian Eigenvalues:
     0.062272    0.937376    1.628351

 Minimum Search - Taking Simple RFO Step
 Searching for Lamda that Minimizes Along All modes
 Value Taken    Lamda =  -0.02075881
 Calculated Step too Large.  Step scaled by  0.620387
 Step Taken.  Stepsize is  0.300000

                             Maximum     Tolerance    Cnvgd?
         Gradient           0.045520      0.000300      NO
         Displacement       0.186552      0.001200      NO
         Energy change     -0.016670      0.000001      NO

 ----------------------------------------------------------------
             Standard Nuclear Orientation (Angstroms)
    I     Atom           X                Y                Z
 ----------------------------------------------------------------
    1      O       0.8838254736     0.0912938827     0.0000000000
    2      O       2.0501155557    -0.0604357583     0.0000000000
    3      Fe     -1.2380202509    -0.0975118792     0.0000000000
 ----------------------------------------------------------------
 Molecular Point Group                 Cs    NOp =  2
 Largest Abelian Subgroup              Cs    NOp =  2
 Nuclear Repulsion Energy =   113.9382398250 hartrees
 There are       21 alpha and       18 beta electrons
 Applying Cartesian multipole field
    Component          Value
    ---------          -----
     (2,0,0)        1.00000E-11
     (0,2,0)        2.00000E-10
     (0,0,2)       -3.00000E-10
 Nucleus-field energy     =     0.0000000031 hartrees
 Requested basis set is VDZ
 There are 19 shells and 39 basis functions
 A cutoff of  1.0D-12 yielded    178 shell pairs
 There are       786 function pairs (       876 Cartesian)
 Smallest overlap matrix eigenvalue = 1.60E-02
 Guess MOs from SCF MO coefficient file

 -----------------------------------------------------------------------
  General SCF calculation program by
  Eric Jon Sundstrom, Paul Horn, Yuezhi Mao, Dmitri Zuev, Alec White,
  David Stuck, Shaama M.S., Shane Yost, Joonho Lee, David Small,
  Daniel Levine, Susi Lehtola, Hugh Burton, Evgeny Epifanovsky
 -----------------------------------------------------------------------
 Exchange:     0.2000 Hartree-Fock + 0.0800 Slater + 0.7200 B88
 Correlation:  0.1900 VWN1RPA + 0.8100 LYP
 Using SG-1 standard quadrature grid
 using 12 threads for integral computing
 -------------------------------------------------------
 OpenMP Integral computing Module                
 Release: version 1.0, May 2013, Q-Chem Inc. Pittsburgh 
 -------------------------------------------------------
 -------------------------------------------------------
 OpenMP BLAS3 based DFT computing Module                
 Release: version 1.0, May 2013, Q-Chem Inc. Pittsburgh 
 -------------------------------------------------------
 A unrestricted SCF calculation will be
 performed using DIIS, GDM
 SCF converges when RMS gradient is below 1.0e-08
 ---------------------------------------
  Cycle       Energy         DIIS error
 ---------------------------------------
    1   -1411.9295459642      3.24e-03  
    2   -1411.9387742224      3.33e-03  Done DIIS. Switching to GDM
 ---------------------------------------
  Cycle       Energy        RMS Gradient
 ---------------------------------------
    1   -1411.9387742224      1.05e-01   Normal BFGS step
    2   -1411.8822087791      3.52e-01  Line search: overstep
    3   -1411.9450684540      1.74e-02   Normal BFGS step
    4   -1411.9452427938      3.97e-02   Normal BFGS step
    5   -1411.9455532131      1.27e-02   Normal BFGS step
    6   -1411.9456836975      2.61e-03   Normal BFGS step
    7   -1411.9456960504      1.61e-03   Normal BFGS step
    8   -1411.9457079919      1.06e-03   Normal BFGS step
    9   -1411.9457101771      7.41e-04   Normal BFGS step
   10   -1411.9457114018      6.41e-04   Normal BFGS step
   11   -1411.9457127133      5.62e-04   Normal BFGS step
   12   -1411.9457144728      6.89e-04   Normal BFGS step
   13   -1411.9457155963      4.07e-04   Normal BFGS step
   14   -1411.9457159117      9.42e-05   Normal BFGS step
   15   -1411.9457159395      2.07e-05   Normal BFGS step
   16   -1411.9457159412      1.01e-05   Normal BFGS step
   17   -1411.9457159415      2.05e-06   Normal BFGS step
   18   -1411.9457159415      6.32e-07   Normal BFGS step
   19   -1411.9457159415      1.09e-07   Normal BFGS step
   20   -1411.9457159415      5.03e-08   Normal BFGS step
   21   -1411.9457159415      1.09e-07   Normal BFGS step
   22   -1411.9457159415      2.20e-08   Normal BFGS step
  /scratch/qcdevops/jenkins/workspace/build_qchem_linux_distrib/tags/qc511/qchem/libgscf/libgscf/opt/gdm.C::WARNING energy changes are now smaller than effective accuracy.
  /scratch/qcdevops/jenkins/workspace/build_qchem_linux_distrib/tags/qc511/qchem/libgscf/libgscf/opt/gdm.C::        calculation will continue, but THRESH should be increased
  /scratch/qcdevops/jenkins/workspace/build_qchem_linux_distrib/tags/qc511/qchem/libgscf/libgscf/opt/gdm.C::        or SCF_CONVERGENCE decreased. 
  /scratch/qcdevops/jenkins/workspace/build_qchem_linux_distrib/tags/qc511/qchem/libgscf/libgscf/opt/gdm.C::        effective_thresh = 1.47e-09
   23   -1411.9457159415      2.63e-08   Normal BFGS step
   24   -1411.9457159415      2.29e-10  Convergence criterion met
 ---------------------------------------
 SCF time:   CPU 25.08s  wall 3.00s 
<S^2> =          4.825927873
 SCF   energy in the final basis set =    -1411.9457159415
 Total energy in the final basis set =    -1411.9457159415
 
 --------------------------------------------------------------
             Orbital Energies (a.u.) and Symmetries
 --------------------------------------------------------------
 
 Alpha MOs, Unrestricted
 -- Occupied --                  
-257.05  -31.04  -26.92  -26.89  -26.89  -20.22  -20.20   -4.51
  1 A'    2 A'    3 A'    1 A"    4 A'    5 A'    6 A'    7 A'                 
 -3.329  -3.269  -3.269  -2.202  -1.626  -1.393  -1.380  -1.345
  8 A'    9 A'    2 A"   10 A'   11 A'   12 A'    3 A"   13 A'                 
 -1.315  -1.309  -1.306  -1.275  -1.251
 14 A'    4 A"   15 A'   16 A'    5 A"                                         
 -- Virtual --                   
 -1.014  -0.974  -0.858  -0.596  -0.413  -0.029  -0.027  -0.021
  6 A"   17 A'   18 A'   19 A'   20 A'   21 A'    7 A"   22 A'                 
  0.085   0.087   0.091   0.115   0.127   0.159   0.238   0.292
 23 A'    8 A"   24 A'    9 A"   25 A'   26 A'   27 A'   10 A"                 
  0.294   0.436
 28 A'   29 A'                                                                 
 
 Beta MOs, Unrestricted
 -- Occupied --                  
-257.05  -30.96  -26.84  -26.83  -26.83  -20.25  -20.21   -4.31
  1 A'    2 A'    3 A'    1 A"    4 A'    5 A'    6 A'    7 A'                 
 -3.085  -3.074  -3.072  -2.236  -1.667  -1.438  -1.415  -1.404
  8 A'    9 A'    2 A"   10 A'   11 A'   12 A'   13 A'    3 A"                 
 -1.169  -1.140
 14 A'    4 A"                                                                 
 -- Virtual --                   
 -1.049  -0.993  -0.984  -0.983  -0.947  -0.835  -0.618  -0.406
  5 A"   15 A'   16 A'    6 A"   17 A'   18 A'   19 A'   20 A'                 
 -0.036  -0.018  -0.016   0.080   0.106   0.108   0.171   0.173
 21 A'   22 A'    7 A"   23 A'    8 A"   24 A'   25 A'    9 A"                 
  0.183   0.287   0.304   0.306   0.427
 26 A'   27 A'   10 A"   28 A'   29 A'                                         
 --------------------------------------------------------------
 
          Ground-State Mulliken Net Atomic Charges

     Atom                 Charge (a.u.)    Spin (a.u.)
  --------------------------------------------------------
      1 O                     0.185557      -0.275878
      2 O                     0.731132      -0.816487
      3 Fe                    2.083311       4.092365
  --------------------------------------------------------
  Sum of atomic charges =     3.000000
  Sum of spin   charges =     3.000000

 -----------------------------------------------------------------
                    Cartesian Multipole Moments
 -----------------------------------------------------------------
    Charge (ESU x 10^10)
                14.4096
    Dipole Moment (Debye)
         X      -4.0450      Y      -1.0911      Z       0.0000
       Tot       4.1896
    Quadrupole Moments (Debye-Ang)
        XX      15.6394     XY       0.9702     YY     -15.1829
        XZ      -0.0000     YZ      -0.0000     ZZ     -15.1831
    Octopole Moments (Debye-Ang^2)
       XXX       1.1362    XXY      -1.4206    XYY      -3.7133
       YYY       1.4047    XXZ      -0.0000    XYZ      -0.0000
       YYZ      -0.0000    XZZ      -2.0433    YZZ       0.5379
       ZZZ       0.0000
    Hexadecapole Moments (Debye-Ang^3)
      XXXX    -111.1556   XXXY      -1.7771   XXYY     -32.5599
      XYYY      -2.0156   YYYY      -8.4106   XXXZ      -0.0000
      XXYZ      -0.0000   XYYZ       0.0000   YYYZ      -0.0000
      XXZZ     -31.9041   XYZZ      -0.7691   YYZZ      -2.6659
      XZZZ      -0.0000   YZZZ      -0.0000   ZZZZ      -7.5835
 -----------------------------------------------------------------
 Calculating analytic gradient of the SCF energy
 Gradient of SCF Energy
            1           2           3
    1  -0.0481811   0.0073444   0.0408367
    2   0.0033237  -0.0059241   0.0026004
    3  -0.0000000   0.0000000  -0.0000000
 Max gradient component =       4.818E-02
 RMS gradient           =       2.133E-02
 Gradient time:  CPU 5.72 s  wall 0.52 s
 Geometry Optimization Parameters
   NAtoms,    NIC,     NZ,  NCons,   NDum,   NFix, NCnnct, MaxDiis
        3       9       0       0       0       0       0       0

 Cartesian Hessian Update
 Hessian Updated using BFGS Update


** GEOMETRY OPTIMIZATION IN CARTESIAN COORDINATES **
   Searching for a Minimum

   Optimization Cycle:   6

                       Coordinates (Angstroms)
     ATOM                X               Y               Z
      1  O         0.8838254736    0.0912938827    0.0000000000
      2  O         2.0501155557   -0.0604357583    0.0000000000
      3  Fe       -1.2380202509   -0.0975118792    0.0000000000
   Point Group: cs    Number of degrees of freedom:     3


   Energy is  -1411.945715941


 Translations and Rotations Projected Out of Hessian

  3 Hessian modes will be used to form the next step
  Hessian Eigenvalues:
     0.017442    1.048340    1.522655

 Minimum Search - Taking Simple RFO Step
 Searching for Lamda that Minimizes Along All modes
 Value Taken    Lamda =  -0.03212433
 Calculated Step too Large.  Step scaled by  0.384196
 Step Taken.  Stepsize is  0.300000

                             Maximum     Tolerance    Cnvgd?
         Gradient           0.048181      0.000300      NO
         Displacement       0.189031      0.001200      NO
         Energy change     -0.011186      0.000001      NO

 ----------------------------------------------------------------
             Standard Nuclear Orientation (Angstroms)
    I     Atom           X                Y                Z
 ----------------------------------------------------------------
    1      O       0.9494360761     0.1712747118     0.0000000000
    2      O       2.0845358379    -0.1078921771     0.0000000000
    3      Fe     -1.3380511355    -0.1300362895     0.0000000000
 ----------------------------------------------------------------
 Molecular Point Group                 Cs    NOp =  2
 Largest Abelian Subgroup              Cs    NOp =  2
 Nuclear Repulsion Energy =   108.8376678553 hartrees
 There are       21 alpha and       18 beta electrons
 Applying Cartesian multipole field
    Component          Value
    ---------          -----
     (2,0,0)        1.00000E-11
     (0,2,0)        2.00000E-10
     (0,0,2)       -3.00000E-10
 Nucleus-field energy     =     0.0000000037 hartrees
 Requested basis set is VDZ
 There are 19 shells and 39 basis functions
 A cutoff of  1.0D-12 yielded    176 shell pairs
 There are       782 function pairs (       872 Cartesian)
 Smallest overlap matrix eigenvalue = 1.59E-02
 Guess MOs from SCF MO coefficient file

 -----------------------------------------------------------------------
  General SCF calculation program by
  Eric Jon Sundstrom, Paul Horn, Yuezhi Mao, Dmitri Zuev, Alec White,
  David Stuck, Shaama M.S., Shane Yost, Joonho Lee, David Small,
  Daniel Levine, Susi Lehtola, Hugh Burton, Evgeny Epifanovsky
 -----------------------------------------------------------------------
 Exchange:     0.2000 Hartree-Fock + 0.0800 Slater + 0.7200 B88
 Correlation:  0.1900 VWN1RPA + 0.8100 LYP
 Using SG-1 standard quadrature grid
 using 12 threads for integral computing
 -------------------------------------------------------
 OpenMP Integral computing Module                
 Release: version 1.0, May 2013, Q-Chem Inc. Pittsburgh 
 -------------------------------------------------------
 -------------------------------------------------------
 OpenMP BLAS3 based DFT computing Module                
 Release: version 1.0, May 2013, Q-Chem Inc. Pittsburgh 
 -------------------------------------------------------
 A unrestricted SCF calculation will be
 performed using DIIS, GDM
 SCF converges when RMS gradient is below 1.0e-08
 ---------------------------------------
  Cycle       Energy         DIIS error
 ---------------------------------------
    1   -1411.9435099801      3.03e-03  
    2   -1411.9531590809      2.96e-03  Done DIIS. Switching to GDM
 ---------------------------------------
  Cycle       Energy        RMS Gradient
 ---------------------------------------
    1   -1411.9531590809      1.02e-01   Normal BFGS step
    2   -1411.9050954064      3.67e-01  Line search: overstep
    3   -1411.9577237884      1.25e-02   Normal BFGS step
    4   -1411.9575658316      4.06e-02  Line search: overstep
    5   -1411.9580064262      1.20e-02   Normal BFGS step
    6   -1411.9581713733      2.75e-03   Normal BFGS step
    7   -1411.9581919858      1.91e-03   Normal BFGS step
    8   -1411.9582039735      9.77e-04   Normal BFGS step
    9   -1411.9582082724      6.39e-04   Normal BFGS step
   10   -1411.9582094187      3.29e-04   Normal BFGS step
   11   -1411.9582096463      3.20e-04   Normal BFGS step
   12   -1411.9582098509      3.01e-04   Normal BFGS step
   13   -1411.9582104399      3.44e-04   Normal BFGS step
   14   -1411.9582110156      3.54e-04   Normal BFGS step
   15   -1411.9582113856      1.76e-04   Normal BFGS step
   16   -1411.9582114616      4.56e-05   Normal BFGS step
   17   -1411.9582114676      8.71e-06   Normal BFGS step
   18   -1411.9582114678      2.02e-06   Normal BFGS step
   19   -1411.9582114678      5.22e-07   Normal BFGS step
   20   -1411.9582114678      4.68e-08   Normal BFGS step
   21   -1411.9582114678      1.14e-07   Normal BFGS step
   22   -1411.9582114678      2.10e-07   Normal BFGS step
   23   -1411.9582114678      4.70e-09  Convergence criterion met
 ---------------------------------------
 SCF time:   CPU 24.10s  wall 2.00s 
<S^2> =          4.779844512
 SCF   energy in the final basis set =    -1411.9582114678
 Total energy in the final basis set =    -1411.9582114678
 
 --------------------------------------------------------------
             Orbital Energies (a.u.) and Symmetries
 --------------------------------------------------------------
 
 Alpha MOs, Unrestricted
 -- Occupied --                  
-257.02  -31.00  -26.89  -26.85  -26.85  -20.21  -20.19   -4.48
  1 A'    2 A'    3 A'    1 A"    4 A'    5 A'    6 A'    7 A'                 
 -3.300  -3.236  -3.234  -2.204  -1.604  -1.378  -1.374  -1.333
  8 A'    9 A'    2 A"   10 A'   11 A'   12 A'    3 A"   13 A'                 
 -1.288  -1.281  -1.280  -1.249  -1.218
 14 A'   15 A'    4 A"   16 A'    5 A"                                         
 -- Virtual --                   
 -1.006  -0.963  -0.853  -0.576  -0.409  -0.033  -0.009  -0.005
  6 A"   17 A'   18 A'   19 A'   20 A'   21 A'   22 A'    7 A"                 
  0.066   0.106   0.106   0.124   0.134   0.179   0.280   0.281
 23 A'    8 A"   24 A'    9 A"   25 A'   26 A'   27 A'   10 A"                 
  0.321   0.455
 28 A'   29 A'                                                                 
 
 Beta MOs, Unrestricted
 -- Occupied --                  
-257.02  -30.92  -26.81  -26.79  -26.79  -20.24  -20.20   -4.28
  1 A'    2 A'    3 A'    4 A'    1 A"    5 A'    6 A'    7 A'                 
 -3.058  -3.045  -3.044  -2.236  -1.646  -1.432  -1.398  -1.394
  8 A'    9 A'    2 A"   10 A'   11 A'   12 A'   13 A'    3 A"                 
 -1.156  -1.118
 14 A'    4 A"                                                                 
 -- Virtual --                   
 -1.033  -0.969  -0.960  -0.957  -0.921  -0.829  -0.599  -0.402
  5 A"   15 A'   16 A'    6 A"   17 A'   18 A'   19 A'   20 A'                 
 -0.034  -0.002   0.002   0.066   0.121   0.121   0.177   0.192
 21 A'   22 A'    7 A"   23 A'   24 A'    8 A"   25 A'    9 A"                 
  0.194   0.288   0.292   0.372   0.449
 26 A'   27 A'   10 A"   28 A'   29 A'                                         
 --------------------------------------------------------------
 
          Ground-State Mulliken Net Atomic Charges

     Atom                 Charge (a.u.)    Spin (a.u.)
  --------------------------------------------------------
      1 O                     0.252305      -0.327006
      2 O                     0.716101      -0.711732
      3 Fe                    2.031594       4.038738
  --------------------------------------------------------
  Sum of atomic charges =     3.000000
  Sum of spin   charges =     3.000000

 -----------------------------------------------------------------
                    Cartesian Multipole Moments
 -----------------------------------------------------------------
    Charge (ESU x 10^10)
                14.4096
    Dipole Moment (Debye)
         X      -4.4352      Y      -1.4044      Z      -0.0000
       Tot       4.6522
    Quadrupole Moments (Debye-Ang)
        XX      18.2293     XY       1.3278     YY     -15.0412
        XZ      -0.0000     YZ      -0.0000     ZZ     -15.1319
    Octopole Moments (Debye-Ang^2)
       XXX      -0.7308    XXY      -2.3974    XYY      -3.4766
       YYY       1.5601    XXZ      -0.0000    XYZ      -0.0000
       YYZ      -0.0000    XZZ      -1.5262    YZZ       0.6295
       ZZZ       0.0000
    Hexadecapole Moments (Debye-Ang^3)
      XXXX    -119.5339   XXXY      -2.7415   XXYY     -35.4544
      XYYY      -2.9566   YYYY      -9.4330   XXXZ      -0.0000
      XXYZ      -0.0000   XYYZ       0.0000   YYYZ      -0.0000
      XXZZ     -34.8514   XYZZ      -1.1435   YYZZ      -2.8160
      XZZZ      -0.0000   YZZZ      -0.0000   ZZZZ      -7.5162
 -----------------------------------------------------------------
 Calculating analytic gradient of the SCF energy
 Gradient of SCF Energy
            1           2           3
    1  -0.0485785   0.0064471   0.0421314
    2   0.0077298  -0.0095254   0.0017956
    3   0.0000000  -0.0000000   0.0000000
 Max gradient component =       4.858E-02
 RMS gradient           =       2.193E-02
 Gradient time:  CPU 5.71 s  wall 0.52 s
 Geometry Optimization Parameters
   NAtoms,    NIC,     NZ,  NCons,   NDum,   NFix, NCnnct, MaxDiis
        3       9       0       0       0       0       0       0

 Cartesian Hessian Update
 Hessian Updated using BFGS Update


** GEOMETRY OPTIMIZATION IN CARTESIAN COORDINATES **
   Searching for a Minimum

   Optimization Cycle:   7

                       Coordinates (Angstroms)
     ATOM                X               Y               Z
      1  O         0.9494360761    0.1712747118    0.0000000000
      2  O         2.0845358379   -0.1078921771    0.0000000000
      3  Fe       -1.3380511355   -0.1300362895    0.0000000000
   Point Group: cs    Number of degrees of freedom:     3


   Energy is  -1411.958211468


 Translations and Rotations Projected Out of Hessian

  3 Hessian modes will be used to form the next step
  Hessian Eigenvalues:
     0.007394    0.953793    1.466746

 Minimum Search - Taking Simple RFO Step
 Searching for Lamda that Minimizes Along All modes
 Value Taken    Lamda =  -0.03718266
 Calculated Step too Large.  Step scaled by  0.338999
 Step Taken.  Stepsize is  0.300000

                             Maximum     Tolerance    Cnvgd?
         Gradient           0.048579      0.000300      NO
         Displacement       0.194374      0.001200      NO
         Energy change     -0.012496      0.000001      NO

 ----------------------------------------------------------------
             Standard Nuclear Orientation (Angstroms)
    I     Atom           X                Y                Z
 ----------------------------------------------------------------
    1      O       1.0210212695     0.2463090556     0.0000000000
    2      O       2.1158088127    -0.1515369944     0.0000000000
    3      Fe     -1.4409093038    -0.1614258159     0.0000000000
 ----------------------------------------------------------------
 Molecular Point Group                 Cs    NOp =  2
 Largest Abelian Subgroup              Cs    NOp =  2
 Nuclear Repulsion Energy =   104.1289584791 hartrees
 There are       21 alpha and       18 beta electrons
 Applying Cartesian multipole field
    Component          Value
    ---------          -----
     (2,0,0)        1.00000E-11
     (0,2,0)        2.00000E-10
     (0,0,2)       -3.00000E-10
 Nucleus-field energy     =     0.0000000045 hartrees
 Requested basis set is VDZ
 There are 19 shells and 39 basis functions
 A cutoff of  1.0D-12 yielded    176 shell pairs
 There are       782 function pairs (       872 Cartesian)
 Smallest overlap matrix eigenvalue = 1.60E-02
 Guess MOs from SCF MO coefficient file

 -----------------------------------------------------------------------
  General SCF calculation program by
  Eric Jon Sundstrom, Paul Horn, Yuezhi Mao, Dmitri Zuev, Alec White,
[...]
 Warning : Irrep of orbital(  11) could not be determined
 Warning : Irrep of orbital(  17) could not be determined
 Warning : Irrep of orbital(  19) could not be determined
 Warning : Irrep of orbital(  20) could not be determined
 Warning : Irrep of orbital(  21) could not be determined
 Warning : Irrep of orbital(  22) could not be determined
 Warning : Irrep of orbital(  28) could not be determined
 Warning : Irrep of orbital(  31) could not be determined
 Warning : Irrep of orbital(  32) could not be determined
 Warning : Irrep of orbital(  33) could not be determined
 Warning : Irrep of orbital(  34) could not be determined
 
 Beta MOs, Unrestricted
 -- Occupied --                  
-256.87  -30.78  -26.67  -26.65  -26.65  -19.94  -19.94   -4.15
  1 A'    2 A'    0 xxx   0 xxx   0 xxx   3 A'    4 A'    5 A'                 
 -2.925  -2.909  -2.909  -1.989  -1.347  -1.167  -1.130  -1.110
  0 xxx   6 A'    0 xxx   7 A'    8 A'    9 A'    1 A"   10 A'                 
 -0.990  -0.873
  0 xxx  11 A'                                                                 
 -- Virtual --                   
 -0.839  -0.827  -0.827  -0.787  -0.750  -0.723  -0.301  -0.292
  0 xxx   0 xxx   0 xxx   0 xxx   2 A"   12 A'   13 A'   14 A'                 
  0.220   0.290   0.293   0.302   0.306   0.314   0.314   0.338
 15 A'    0 xxx  16 A'    3 A"    0 xxx   0 xxx   0 xxx   0 xxx                
  0.354   0.420   0.438   0.450   0.685
 17 A'   18 A'   19 A'    4 A"   20 A'                                         
 --------------------------------------------------------------
 
          Ground-State Mulliken Net Atomic Charges

     Atom                 Charge (a.u.)    Spin (a.u.)
  --------------------------------------------------------
      1 O                     0.514119      -0.508071
      2 O                     0.485881      -0.491929
      3 Fe                    2.000000       4.000000
  --------------------------------------------------------
  Sum of atomic charges =     3.000000
  Sum of spin   charges =     3.000000

 -----------------------------------------------------------------
                    Cartesian Multipole Moments
 -----------------------------------------------------------------
    Charge (ESU x 10^10)
                14.4096
    Dipole Moment (Debye)
         X     -42.4371      Y      -8.0623      Z      -0.0000
       Tot      43.1962
    Quadrupole Moments (Debye-Ang)
        XX     466.9659     XY      79.4141     YY      -2.0135
        XZ       0.0526     YZ      -0.3028     ZZ     -14.7638
    Octopole Moments (Debye-Ang^2)
       XXX   -2222.8002    XXY    -392.8831    XYY     -56.7155
       YYY      -1.2452    XXZ      -0.6864    XYZ       1.9023
       YYZ       0.6698    XZZ      14.4278    YZZ       3.8467
       ZZZ      -0.0000
    Hexadecapole Moments (Debye-Ang^3)
      XXXX   15486.0534   XXXY    2845.7964   XXYY      69.6471
      XYYY    -119.3085   YYYY     -66.3641   XXXZ       6.6729
      XXYZ     -12.0086   XYYZ      -4.2801   YYYZ      -1.2199
      XXZZ    -427.6302   XYZZ     -68.0487   YYZZ     -14.5125
      XZZZ       0.0176   YZZZ      -0.1051   ZZZZ      -7.2043
 -----------------------------------------------------------------
 Calculating analytic gradient of the SCF energy
 Gradient of SCF Energy
            1           2           3
    1   0.0011558  -0.0059952   0.0048394
    2   0.0032438  -0.0039821   0.0007383
    3   0.0000001  -0.0000000  -0.0000001
 Max gradient component =       5.995E-03
 RMS gradient           =       3.120E-03
 Gradient time:  CPU 5.36 s  wall 0.49 s
 Geometry Optimization Parameters
   NAtoms,    NIC,     NZ,  NCons,   NDum,   NFix, NCnnct, MaxDiis
        3       9       0       0       0       0       0       0

 Cartesian Hessian Update
 Hessian Updated using BFGS Update


** GEOMETRY OPTIMIZATION IN CARTESIAN COORDINATES **
   Searching for a Minimum

   Optimization Cycle:  49

                       Coordinates (Angstroms)
     ATOM                X               Y               Z
      1  O         4.4809217378    0.9318831579    0.0000000000
      2  O         3.6814090791    0.1059728109    0.0000000000
      3  Fe       -6.4664100385   -1.1045097235    0.0000000000
   Point Group: cs    Number of degrees of freedom:     3


   Energy is  -1412.201528139


 Translations and Rotations Projected Out of Hessian

  3 Hessian modes will be used to form the next step
  Hessian Eigenvalues:
     0.000820    1.232966    2.936475

 Minimum Search - Taking Simple RFO Step
 Searching for Lamda that Minimizes Along All modes
 Value Taken    Lamda =  -0.00552008
 Calculated Step too Large.  Step scaled by  0.322697
 Step Taken.  Stepsize is  0.300000

                             Maximum     Tolerance    Cnvgd?
         Gradient           0.005995      0.000300      NO
         Displacement       0.238103      0.001200      NO
         Energy change     -0.001796      0.000001      NO

 ----------------------------------------------------------------
             Standard Nuclear Orientation (Angstroms)
    I     Atom           X                Y                Z
 ----------------------------------------------------------------
    1      O       4.5569111857     0.9291322691     0.0000000000
    2      O       3.7314181760     0.1301547950     0.0000000000
    3      Fe     -6.5924085832    -1.1259408189     0.0000000000
 ----------------------------------------------------------------
 Molecular Point Group                 Cs    NOp =  2
 Largest Abelian Subgroup              Cs    NOp =  2
 Nuclear Repulsion Energy =    49.7722141365 hartrees
 There are       21 alpha and       18 beta electrons
 Applying Cartesian multipole field
    Component          Value
    ---------          -----
     (2,0,0)        1.00000E-11
     (0,2,0)        2.00000E-10
     (0,0,2)       -3.00000E-10
 Nucleus-field energy     =     0.0000000788 hartrees
 Requested basis set is VDZ
 There are 19 shells and 39 basis functions
 A cutoff of  1.0D-12 yielded    110 shell pairs
 There are       458 function pairs (       513 Cartesian)
 Smallest overlap matrix eigenvalue = 1.54E-02
 Guess MOs from SCF MO coefficient file

 -----------------------------------------------------------------------
  General SCF calculation program by
  Eric Jon Sundstrom, Paul Horn, Yuezhi Mao, Dmitri Zuev, Alec White,
  David Stuck, Shaama M.S., Shane Yost, Joonho Lee, David Small,
  Daniel Levine, Susi Lehtola, Hugh Burton, Evgeny Epifanovsky
 -----------------------------------------------------------------------
 Exchange:     0.2000 Hartree-Fock + 0.0800 Slater + 0.7200 B88
 Correlation:  0.1900 VWN1RPA + 0.8100 LYP
 Using SG-1 standard quadrature grid
 using 12 threads for integral computing
 -------------------------------------------------------
 OpenMP Integral computing Module                
 Release: version 1.0, May 2013, Q-Chem Inc. Pittsburgh 
 -------------------------------------------------------
 -------------------------------------------------------
 OpenMP BLAS3 based DFT computing Module                
 Release: version 1.0, May 2013, Q-Chem Inc. Pittsburgh 
 -------------------------------------------------------
 A unrestricted SCF calculation will be
 performed using DIIS, GDM
 SCF converges when RMS gradient is below 1.0e-08
 ---------------------------------------
  Cycle       Energy         DIIS error
 ---------------------------------------
    1   -1412.2022152066      7.99e-04  
    2   -1412.2032522194      1.03e-04  Done DIIS. Switching to GDM
 ---------------------------------------
  Cycle       Energy        RMS Gradient
 ---------------------------------------
    1   -1412.2032522194      3.23e-03   Normal BFGS step
    2   -1412.2032702799      1.00e-03   Normal BFGS step
    3   -1412.2032651667      3.94e-03  Line search: overstep
    4   -1412.2032713435      6.86e-04   Normal BFGS step
    5   -1412.2032720109      1.25e-04   Normal BFGS step
    6   -1412.2032720492      1.98e-05   Normal BFGS step
    7   -1412.2032720497      5.64e-06   Normal BFGS step
    8   -1412.2032720498      1.24e-06   Normal BFGS step
    9   -1412.2032720498      7.88e-07   Normal BFGS step
   10   -1412.2032720498      3.02e-07   Normal BFGS step
   11   -1412.2032720498      2.83e-07   Normal BFGS step
   12   -1412.2032720498      2.74e-07   Normal BFGS step
   13   -1412.2032720498      4.41e-07   Normal BFGS step
   14   -1412.2032720498      6.90e-07   Normal BFGS step
   15   -1412.2032720498      7.33e-07   Normal BFGS step
   16   -1412.2032720498      4.22e-07   Normal BFGS step
   17   -1412.2032720498      3.77e-07   Normal BFGS step
   18   -1412.2032720498      3.67e-07   Normal BFGS step
   19   -1412.2032720498      4.68e-07   Normal BFGS step
   20   -1412.2032720498      9.13e-07   Normal BFGS step
   21   -1412.2032720498      1.57e-06   Normal BFGS step
   22   -1412.2032720498      2.39e-06   Normal BFGS step
   23   -1412.2032720499      2.97e-06   Normal BFGS step
   24   -1412.2032720499      2.41e-06   Normal BFGS step
   25   -1412.2032720499      1.43e-06   Normal BFGS step
   26   -1412.2032720499      1.93e-06   Normal BFGS step
   27   -1412.2032720499      1.21e-06   Normal BFGS step
   28   -1412.2032720499      1.44e-07   Normal BFGS step
   29   -1412.2032720499      1.44e-07   Normal BFGS step
   30   -1412.2032720499      2.35e-07   Normal BFGS step
   31   -1412.2032720499      6.06e-07   Normal BFGS step
   32   -1412.2032720499      1.12e-06   Normal BFGS step
   33   -1412.2032720499      1.75e-06   Normal BFGS step
   34   -1412.2032720499      2.11e-06   Normal BFGS step
   35   -1412.2032720499      1.61e-06   Normal BFGS step
   36   -1412.2032720499      5.62e-07   Normal BFGS step
   37   -1412.2032720499      6.14e-08   Normal BFGS step
   38   -1412.2032720499      8.09e-08   Normal BFGS step
   39   -1412.2032720499      8.93e-08   Normal BFGS step
   40   -1412.2032720499      6.67e-08   Normal BFGS step
  /scratch/qcdevops/jenkins/workspace/build_qchem_linux_distrib/tags/qc511/qchem/libgscf/libgscf/opt/gdm.C::WARNING energy changes are now smaller than effective accuracy.
  /scratch/qcdevops/jenkins/workspace/build_qchem_linux_distrib/tags/qc511/qchem/libgscf/libgscf/opt/gdm.C::        calculation will continue, but THRESH should be increased
  /scratch/qcdevops/jenkins/workspace/build_qchem_linux_distrib/tags/qc511/qchem/libgscf/libgscf/opt/gdm.C::        or SCF_CONVERGENCE decreased. 
  /scratch/qcdevops/jenkins/workspace/build_qchem_linux_distrib/tags/qc511/qchem/libgscf/libgscf/opt/gdm.C::        effective_thresh = 4.58e-09
   41   -1412.2032720499      3.46e-08   Normal BFGS step
  /scratch/qcdevops/jenkins/workspace/build_qchem_linux_distrib/tags/qc511/qchem/libgscf/libgscf/opt/gdm.C::WARNING energy changes are now smaller than effective accuracy.
  /scratch/qcdevops/jenkins/workspace/build_qchem_linux_distrib/tags/qc511/qchem/libgscf/libgscf/opt/gdm.C::        calculation will continue, but THRESH should be increased
  /scratch/qcdevops/jenkins/workspace/build_qchem_linux_distrib/tags/qc511/qchem/libgscf/libgscf/opt/gdm.C::        or SCF_CONVERGENCE decreased. 
  /scratch/qcdevops/jenkins/workspace/build_qchem_linux_distrib/tags/qc511/qchem/libgscf/libgscf/opt/gdm.C::        effective_thresh = 4.58e-09
   42   -1412.2032720499      1.73e-08   Normal BFGS step
   43   -1412.2032720499      7.94e-09  Convergence criterion met
 ---------------------------------------
 SCF time:   CPU 39.31s  wall 3.00s 
<S^2> =          4.752847936
 SCF   energy in the final basis set =    -1412.2032720499
 Total energy in the final basis set =    -1412.2032720499
 
 --------------------------------------------------------------
             Orbital Energies (a.u.) and Symmetries
 --------------------------------------------------------------
 Warning : Irrep of orbital(   3) could not be determined
 Warning : Irrep of orbital(   4) could not be determined
 Warning : Irrep of orbital(   5) could not be determined
 Warning : Irrep of orbital(   9) could not be determined
 Warning : Irrep of orbital(  10) could not be determined
 Warning : Irrep of orbital(  11) could not be determined
 Warning : Irrep of orbital(  14) could not be determined
 Warning : Irrep of orbital(  15) could not be determined
 Warning : Irrep of orbital(  16) could not be determined
 Warning : Irrep of orbital(  17) could not be determined
 Warning : Irrep of orbital(  20) could not be determined
 Warning : Irrep of orbital(  27) could not be determined
 Warning : Irrep of orbital(  28) could not be determined
 Warning : Irrep of orbital(  31) could not be determined
 Warning : Irrep of orbital(  32) could not be determined
 
 Alpha MOs, Unrestricted
 -- Occupied --                  
-256.87  -30.86  -26.74  -26.71  -26.71  -19.92  -19.92   -4.34
  1 A'    2 A'    0 xxx   0 xxx   0 xxx   3 A'    4 A'    5 A'                 
 -3.165  -3.095  -3.095  -1.958  -1.299  -1.155  -1.146  -1.146
  0 xxx   0 xxx   0 xxx   6 A'    7 A'    0 xxx   0 xxx   0 xxx                
 -1.115  -1.112  -1.086  -1.079  -1.067
  0 xxx   1 A"    8 A'    0 xxx   9 A'                                         
 -- Virtual --                   
 -0.748  -0.728  -0.680  -0.306  -0.264   0.223   0.228   0.228
 10 A'    2 A"   11 A'   12 A'   13 A'    0 xxx   0 xxx  14 A'                 
  0.235   0.243   0.258   0.312   0.341   0.367   0.426   0.459
 15 A'    0 xxx   0 xxx   3 A"   16 A'   17 A'   18 A'    4 A"                 
  0.485   0.701
 19 A'   20 A'                                                                 
 Warning : Irrep of orbital(   3) could not be determined
 Warning : Irrep of orbital(   4) could not be determined
 Warning : Irrep of orbital(   5) could not be determined
 Warning : Irrep of orbital(   9) could not be determined
 Warning : Irrep of orbital(  10) could not be determined
 Warning : Irrep of orbital(  11) could not be determined
 Warning : Irrep of orbital(  17) could not be determined
 Warning : Irrep of orbital(  19) could not be determined
 Warning : Irrep of orbital(  20) could not be determined
 Warning : Irrep of orbital(  21) could not be determined
 Warning : Irrep of orbital(  22) could not be determined
 Warning : Irrep of orbital(  28) could not be determined
 Warning : Irrep of orbital(  31) could not be determined
 Warning : Irrep of orbital(  32) could not be determined
 Warning : Irrep of orbital(  33) could not be determined
 Warning : Irrep of orbital(  34) could not be determined
 
 Beta MOs, Unrestricted
 -- Occupied --                  
-256.87  -30.78  -26.67  -26.65  -26.65  -19.94  -19.94   -4.15
  1 A'    2 A'    0 xxx   0 xxx   0 xxx   3 A'    4 A'    5 A'                 
 -2.924  -2.909  -2.909  -1.988  -1.345  -1.166  -1.128  -1.108
  0 xxx   0 xxx   0 xxx   6 A'    7 A'    8 A'    1 A"    9 A'                 
 -0.989  -0.871
  0 xxx  10 A'                                                                 
 -- Virtual --                   
 -0.838  -0.826  -0.826  -0.786  -0.748  -0.722  -0.301  -0.289
  0 xxx   0 xxx   0 xxx   0 xxx   2 A"   11 A'   12 A'   13 A'                 
  0.221   0.291   0.294   0.304   0.307   0.315   0.315   0.339
 14 A'    0 xxx  15 A'    3 A"    0 xxx   0 xxx   0 xxx   0 xxx                
  0.356   0.422   0.440   0.451   0.687
 16 A'   17 A'   18 A'    4 A"   19 A'                                         
 --------------------------------------------------------------
 
          Ground-State Mulliken Net Atomic Charges

     Atom                 Charge (a.u.)    Spin (a.u.)
  --------------------------------------------------------
      1 O                     0.513935      -0.507943
      2 O                     0.486065      -0.492057
      3 Fe                    2.000000       4.000000
  --------------------------------------------------------
  Sum of atomic charges =     3.000000
  Sum of spin   charges =     3.000000

 -----------------------------------------------------------------
                    Cartesian Multipole Moments
 -----------------------------------------------------------------
    Charge (ESU x 10^10)
                14.4096
    Dipole Moment (Debye)
         X     -43.3450      Y      -8.2191      Z      -0.0000
       Tot      44.1173
    Quadrupole Moments (Debye-Ang)
        XX     485.2963     XY      82.4706     YY      -1.5293
        XZ       0.0530     YZ      -0.3027     ZZ     -14.7626
    Octopole Moments (Debye-Ang^2)
       XXX   -2360.5544    XXY    -416.9723    XYY     -60.6341
       YYY      -1.8210    XXZ      -0.7053    XYZ       1.9385
       YYZ       0.6826    XZZ      14.8412    YZZ       3.9160
       ZZZ      -0.0000
    Hexadecapole Moments (Debye-Ang^3)
      XXXX   16823.7139   XXXY    3079.8919   XXYY      93.8468
      XYYY    -120.4027   YYYY     -67.2779   XXXZ       6.9876
      XXYZ     -12.4675   XYYZ      -4.4457   YYYZ      -1.2631
      XXZZ    -443.3208   XYZZ     -70.6246   YYZZ     -14.8522
      XZZZ       0.0179   YZZZ      -0.1050   ZZZZ      -7.2031
 -----------------------------------------------------------------
 Calculating analytic gradient of the SCF energy
 Gradient of SCF Energy
            1           2           3
    1   0.0004383  -0.0051097   0.0046714
    2   0.0022407  -0.0029550   0.0007143
    3   0.0000001   0.0000000  -0.0000001
 Max gradient component =       5.110E-03
 RMS gradient           =       2.633E-03
 Gradient time:  CPU 5.33 s  wall 0.48 s
 Geometry Optimization Parameters
   NAtoms,    NIC,     NZ,  NCons,   NDum,   NFix, NCnnct, MaxDiis
        3       9       0       0       0       0       0       0

 Cartesian Hessian Update
 Hessian Updated using BFGS Update


** GEOMETRY OPTIMIZATION IN CARTESIAN COORDINATES **
   Searching for a Minimum

   Optimization Cycle:  50

                       Coordinates (Angstroms)
     ATOM                X               Y               Z
      1  O         4.5569111857    0.9291322691    0.0000000000
      2  O         3.7314181760    0.1301547950    0.0000000000
      3  Fe       -6.5924085832   -1.1259408189    0.0000000000
   Point Group: cs    Number of degrees of freedom:     3


   Energy is  -1412.203272050


 Translations and Rotations Projected Out of Hessian

  3 Hessian modes will be used to form the next step
  Hessian Eigenvalues:
     0.000789    1.210257    2.934384

 Minimum Search - Taking Simple RFO Step
 Searching for Lamda that Minimizes Along All modes
 Value Taken    Lamda =  -0.00529869
 Calculated Step too Large.  Step scaled by  0.322326
 Step Taken.  Stepsize is  0.300000

                             Maximum     Tolerance    Cnvgd?
         Gradient           0.005110      0.000300      NO
         Displacement       0.238130      0.001200      NO
         Energy change     -0.001744      0.000001      NO

 ----------------------------------------------------------------
             Standard Nuclear Orientation (Angstroms)
    I     Atom           X                Y                Z
 ----------------------------------------------------------------
    1      O       4.6328814977     0.9264493148     0.0000000000
    2      O       3.7814609292     0.1542636984     0.0000000000
    3      Fe     -6.7184216485    -1.1473667680     0.0000000000
 ----------------------------------------------------------------
 Molecular Point Group                 Cs    NOp =  2
 Largest Abelian Subgroup              Cs    NOp =  2
 Nuclear Repulsion Energy =    49.4064224106 hartrees
 There are       21 alpha and       18 beta electrons

                       Distance Matrix (Angstroms)
             O (  1)   O (  2)
   O (  2)  1.149429
   Fe(  3) 11.539185 10.580254
 


 *******************************************
 **  MAXIMUM OPTIMIZATION CYCLES REACHED  **
 *******************************************

 Q-Chem fatal error occurred in module 0, line  456:

 Maximum optimization cycles reached

