
Running Job 1 of 1 sys_2_opt_vdz_mgga_trip.in
qchem sys_2_opt_vdz_mgga_trip.in_8727.0 /scr/c295_lal/137042/qchem8727/ 1
/usr/software/qchem_511/exe/qcprog.exe_s sys_2_opt_vdz_mgga_trip.in_8727.0 /scr/c295_lal/137042/qchem8727/
Check license passed

                  Welcome to Q-Chem
     A Quantum Leap Into The Future Of Chemistry


 Q-Chem 5.1, Q-Chem, Inc., Pleasanton, CA (2018)

 Yihan Shao,  Zhengting Gan,  E. Epifanovsky,  A. T. B. Gilbert,  M. Wormit,  
 J. Kussmann,  A. W. Lange,  A. Behn,  Jia Deng,  Xintian Feng,  D. Ghosh,  
 M. Goldey,  P. R. Horn,  L. D. Jacobson,  I. Kaliman,  T. Kus,  A. Landau,  
 Jie Liu,  E. I. Proynov,  R. M. Richard,  R. P. Steele,  E. J. Sundstrom,  
 H. L. Woodcock III,  P. M. Zimmerman,  D. Zuev,  B. Albrecht,  E. Alguire,  
 S. A. Baeppler,  D. Barton,  Z. Benda,  Y. A. Bernard,  E. J. Berquist,  
 K. B. Bravaya,  H. Burton,  D. Casanova,  Chun-Min Chang,  Yunqing Chen,  
 A. Chien,  K. D. Closser,  M. P. Coons,  S. Coriani,  S. Dasgupta,  
 A. L. Dempwolff,  M. Diedenhofen,  Hainam Do,  R. G. Edgar,  Po-Tung Fang,  
 S. Faraji,  S. Fatehi,  Qingguo Feng,  K. D. Fenk,  J. Fosso-Tande,  
 Qinghui Ge,  A. Ghysels,  G. Gidofalvi,  J. Gomes,  J. Gonthier,  A. Gunina,  
 D. Hait,  M. W. D. Hanson-Heine,  P. H. P. Harbach,  A. W. Hauser,  
 J. E. Herr,  E. G. Hohenstein,  Z. C. Holden,  Kerwin Hui,  B. C. Huynh,  
 T.-C. Jagau,  Hyunjun Ji,  B. Kaduk,  K. Khistyaev,  Jaehoon Kim,  
 P. Klunzinger,  K. Koh,  D. Kosenkov,  L. Koulias,  T. Kowalczyk,  
 C. M. Krauter,  A. Kunitsa,  Ka Un Lao,  A. Laurent,  K. V. Lawler,  
 Joonho Lee,  D. Lefrancois,  S. Lehtola,  D. S. Levine,  Yi-Pei Li,  
 You-Sheng Lin,  Fenglai Liu,  E. Livshits,  A. Luenser,  P. Manohar,  
 E. Mansoor,  S. F. Manzer,  Shan-Ping Mao,  Yuezhi Mao,  N. Mardirossian,  
 A. V. Marenich,  T. Markovich,  L. A. Martinez-Martinez,  S. A. Maurer,  
 N. J. Mayhall,  S. C. McKenzie,  J.-M. Mewes,  A. F. Morrison,  
 J. W. Mullinax,  K. Nanda,  T. S. Nguyen-Beck,  R. Olivares-Amaya,  
 J. A. Parkhill,  T. M. Perrine,  F. Plasser,  P. Pokhilko,  S. Prager,  
 A. Prociuk,  E. Ramos,  D. R. Rehn,  F. Rob,  M. Schneider,  N. Sergueev,  
 S. M. Sharada,  S. Sharma,  D. W. Small,  T. Stauch,  T. Stein,  
 Yu-Chuan Su,  A. J. W. Thom,  A. Tkatchenko,  T. Tsuchimochi,  N. M. Tubman,  
 L. Vogt,  M. L. Vidal,  O. Vydrov,  M. A. Watson,  J. Wenzel,  
 M. de Wergifosse,  T. A. Wesolowski,  A. White,  J. Witte,  A. Yamada,  
 Jun Yang,  K. Yao,  S. Yeganeh,  S. R. Yost,  Zhi-Qiang You,  A. Zech,  
 Igor Ying Zhang,  Xing Zhang,  Yan Zhao,  Ying Zhu,  B. R. Brooks,  
 G. K. L. Chan,  C. J. Cramer,  M. S. Gordon,  W. J. Hehre,  A. Klamt,  
 M. W. Schmidt,  C. D. Sherrill,  D. G. Truhlar,  A. Aspuru-Guzik,  R. Baer,  
 A. T. Bell,  N. A. Besley,  Jeng-Da Chai,  A. E. DePrince, III,  
 R. A. DiStasio Jr.,  A. Dreuw,  B. D. Dunietz,  T. R. Furlani,  
 Chao-Ping Hsu,  Yousung Jung,  Jing Kong,  D. S. Lambrecht,  WanZhen Liang,  
 C. Ochsenfeld,  V. A. Rassolov,  L. V. Slipchenko,  J. E. Subotnik,  
 T. Van Voorhis,  J. M. Herbert,  A. I. Krylov,  P. M. W. Gill,  M. Head-Gordon

 Contributors to earlier versions of Q-Chem not listed above: 
 R. D. Adamson,  B. Austin,  J. Baker,  G. J. O. Beran,  K. Brandhorst,  
 S. T. Brown,  E. F. C. Byrd,  A. K. Chakraborty,  C.-L. Cheng,  
 Siu Hung Chien,  D. M. Chipman,  D. L. Crittenden,  H. Dachsel,  
 R. J. Doerksen,  A. D. Dutoi,  L. Fusti-Molnar,  W. A. Goddard III,  
 A. Golubeva-Zadorozhnaya,  S. R. Gwaltney,  G. Hawkins,  A. Heyden,  
 S. Hirata,  G. Kedziora,  F. J. Keil,  C. Kelley,  Jihan Kim,  R. A. King,  
 R. Z. Khaliullin,  P. P. Korambath,  W. Kurlancheek,  A. M. Lee,  M. S. Lee,  
 S. V. Levchenko,  Ching Yeh Lin,  D. Liotard,  R. C. Lochan,  I. Lotan,  
 P. E. Maslen,  N. Nair,  D. P. O'Neill,  D. Neuhauser,  E. Neuscamman,  
 C. M. Oana,  R. Olson,  B. Peters,  R. Peverati,  P. A. Pieniazek,  
 Y. M. Rhee,  J. Ritchie,  M. A. Rohrdanz,  E. Rosta,  N. J. Russ,  
 H. F. Schaefer III,  N. E. Schultz,  N. Shenvi,  A. C. Simmonett,  A. Sodt,  
 D. Stuck,  K. S. Thanthiriwatte,  V. Vanovschi,  Tao Wang,  A. Warshel,  
 C. F. Williams,  Q. Wu,  X. Xu,  W. Zhang

 Please cite Q-Chem as follows:
 Y. Shao et al., Mol. Phys. 113, 184-215 (2015)
 DOI: 10.1080/00268976.2014.952696

 Q-Chem 5.1.1 for Intel X86 EM64T Linux

 Parts of Q-Chem use Armadillo 8.300.2 (Tropical Shenanigans).
 http://arma.sourceforge.net/

 Q-Chem begins on Wed Oct 31 13:08:21 2018  

Host: cub-0-17.local
0

     Scratch files written to /scr/c295_lal/137042/qchem8727//
 Aug318 |scratch|qcdevops|jenkins|workspace|build_RNUM -1
Processing $rem in /usr/software/qchem_511/config/preferences.
 MEM_TOTAL  2000 
Input Ideriv = 2
Curr. Ideriv = -1
Max.  Ideriv = 2

Checking the input file for inconsistencies... 	...done.

--------------------------------------------------------------
User input:
--------------------------------------------------------------
$molecule
3 4
O         -2.11771        2.84524        1.90186
O         -1.27741        2.18552        1.47373
Fe        -2.81544        4.11050        2.04380
$end

$rem
BASIS = VDZ
METHOD  = B3LYP
JOBTYPE = OPT
MAX_SCF_CYCLES = 500
$end
--------------------------------------------------------------
 ----------------------------------------------------------------
             Standard Nuclear Orientation (Angstroms)
    I     Atom           X                Y                Z
 ----------------------------------------------------------------
    1      O       0.6761783239    -0.2217388475    -0.0000000000
    2      O       1.7734850227     0.1254612018     0.0000000000
    3      Fe     -0.7537425682     0.0296238910     0.0000000000
 ----------------------------------------------------------------
 Molecular Point Group                 Cs    NOp =  2
 Largest Abelian Subgroup              Cs    NOp =  2
 Nuclear Repulsion Energy =   148.7611358301 hartrees
 There are       21 alpha and       18 beta electrons
 Requested basis set is VDZ
 There are 19 shells and 39 basis functions

 Total QAlloc Memory Limit   2000 MB
 Mega-Array Size       188 MB
 MEM_STATIC part       192 MB
 A cutoff of  1.0D-11 yielded    186 shell pairs
 There are       812 function pairs (       903 Cartesian)
 
 -------------------------------------------------------
 OpenMP Integral Computing Module                       
 Release: version 1.0, May 2013, Q-Chem Inc. Pittsburgh 
 -------------------------------------------------------
 Integral Job Info:
 Integral job number is                      11
 Integral operator is                         1
 short-range coefficients                     0
 long-range coefficients              100000000
 Omega coefficients                           0
 if combine SR and LR in K                    0
 Integral screening is                        0
 Integral computing path is                   2
 max size of driver memory is            800000
 size of driver memory is                593474
 size of scratch memory is             29634545
 max col of scratch BK array               1296
 max len of scratch array in speh3          155
 max len of scratch index in speh4           18
 max int batch size is                      520
 min int batch size is                       52
 fixed nKL is                                45
 max L of basis functions is                  2
 order of int derivative is                   0
 number of shells is                         19
 number of basis is                          41
 number of cartesian basis is                41
 number of contracted shell pairs           186
 number of primitive shell pairs           1004
 maxK2 (contraction) of shell pair           36
 max number of K2 of shell pair               1
 max number of CS2 of shell pair             23
 max number of PS2 of shell pair             69
 mem total for path MDJ                  515062
 -------------------------------------------------------
 Smallest overlap matrix eigenvalue = 1.30E-02

 Scale SEOQF with 1.000000e-01/1.000000e+00/1.000000e+00

 Standard Electronic Orientation quadrupole field applied
 Nucleus-field energy     =     0.0000000019 hartrees
 Guess from superposition of atomic densities
 Warning:  Energy on first SCF cycle will be non-variational
 SAD guess density has 42.000000 electrons

 -----------------------------------------------------------------------
  General SCF calculation program by
  Eric Jon Sundstrom, Paul Horn, Yuezhi Mao, Dmitri Zuev, Alec White,
  David Stuck, Shaama M.S., Shane Yost, Joonho Lee, David Small,
  Daniel Levine, Susi Lehtola, Hugh Burton, Evgeny Epifanovsky
 -----------------------------------------------------------------------
 Exchange:     0.2000 Hartree-Fock + 0.0800 Slater + 0.7200 B88
 Correlation:  0.1900 VWN1RPA + 0.8100 LYP
 Using SG-1 standard quadrature grid
 using 12 threads for integral computing
 -------------------------------------------------------
 OpenMP Integral computing Module                
 Release: version 1.0, May 2013, Q-Chem Inc. Pittsburgh 
 -------------------------------------------------------
 -------------------------------------------------------
 OpenMP BLAS3 based DFT computing Module                
 Release: version 1.0, May 2013, Q-Chem Inc. Pittsburgh 
 -------------------------------------------------------
 A unrestricted SCF calculation will be
 performed using DIIS
 SCF converges when DIIS error is below 1.0e-08
 ---------------------------------------
  Cycle       Energy         DIIS error
 ---------------------------------------
    1   -1414.3027826819      8.56e-02  
    2   -1411.0412982915      3.35e-02  
    3   -1399.9437011594      1.03e-01  
    4   -1410.0851921436      5.09e-02  
    5   -1410.4853029425      4.57e-02  
    6   -1409.0689572056      5.86e-02  
    7   -1410.1384822897      4.94e-02  
    8   -1410.1393725418      4.94e-02  
    9   -1410.8648803902      3.88e-02  
   10   -1410.8840367139      3.85e-02  
   11   -1410.6794968119      4.19e-02  
   12   -1410.0637949338      5.01e-02  
   13   -1410.1695059394      4.88e-02  
   14   -1410.0550119497      5.01e-02  
   15   -1410.0930210386      4.96e-02  
   16   -1410.0962100906      4.95e-02  
   17   -1409.9244732664      5.13e-02  
   18   -1410.5718701463      4.33e-02  
   19   -1411.3966714872      2.41e-02  
   20   -1411.4892972437      1.97e-02  
   21   -1411.7159186102      5.15e-03  
   22   -1411.7347296791      2.19e-03  
   23   -1411.7437779576      1.77e-03  
   24   -1411.7413693104      2.47e-03  
   25   -1411.7440550639      2.12e-03  
   26   -1411.7281676390      3.07e-03  
   27   -1411.7126531650      3.64e-03  
   28   -1411.7196630880      2.13e-03  
   29   -1411.7159409578      4.84e-04  
   30   -1411.7066976366      2.10e-03  
   31   -1411.7061660167      2.16e-03  
   32   -1411.7051758237      2.21e-03  
   33   -1411.7049571581      2.20e-03  
   34   -1411.7007747651      3.05e-03  
   35   -1411.7074302472      1.27e-03  
   36   -1411.7081082238      1.01e-03  
   37   -1411.7055161438      1.56e-03  
   38   -1411.7092141602      1.16e-03  
   39   -1411.7089496799      1.29e-03  
   40   -1411.7084826427      1.07e-03  
   41   -1411.7074385240      1.28e-03  
   42   -1411.7072941538      1.44e-03  
   43   -1411.7070492856      1.46e-03  
   44   -1411.7081738408      1.39e-03  
   45   -1411.7150091543      2.07e-03  
   46   -1411.7110259379      1.98e-03  
   47   -1411.7110305404      1.98e-03  
   48   -1411.7104330886      2.10e-03  
   49   -1411.7103852187      2.10e-03  
   50   -1411.7098209059      2.10e-03  
   51   -1411.7093398722      2.15e-03  
   52   -1411.7095103423      2.52e-03  
   53   -1411.7098635740      2.91e-03  
   54   -1411.7089688689      3.87e-03  
   55   -1411.7091098439      2.08e-03  
   56   -1411.7069150134      1.74e-03  
   57   -1411.7092598362      1.86e-03  
   58   -1411.7100496532      1.97e-03  
   59   -1411.7101460858      2.70e-03  
   60   -1411.7120794308      2.11e-03  
   61   -1411.7127550895      2.17e-03  
   62   -1411.7124758408      2.27e-03  
   63   -1411.7124462162      2.21e-03  
   64   -1411.7126127793      2.62e-03  
   65   -1411.7118836734      2.75e-03  
   66   -1411.7118713200      2.88e-03  
   67   -1411.7117164539      2.87e-03  
   68   -1411.7115666482      2.94e-03  
   69   -1411.7114100391      3.05e-03  
   70   -1411.7114846320      3.04e-03  
   71   -1411.7117533123      2.89e-03  
   72   -1411.7027873857      6.25e-03  
   73   -1411.7114542852      6.53e-04  
   74   -1411.7048058330      1.12e-03  
   75   -1411.7117587072      1.98e-03  
   76   -1411.7131762819      2.56e-03  
   77   -1411.7107872743      1.28e-03  
   78   -1411.7106417375      1.32e-03  
   79   -1411.7111141393      1.33e-03  
   80   -1411.7119278104      1.29e-03  
   81   -1411.7115640612      1.15e-03  
   82   -1411.7117502330      1.29e-03  
   83   -1411.7119051959      1.40e-03  
   84   -1411.7118042662      1.27e-03  
   85   -1411.7112771434      1.11e-03  
   86   -1411.7113666943      1.24e-03  
   87   -1411.7112381465      1.20e-03  
   88   -1411.7114558625      1.32e-03  
   89   -1411.7106355660      1.13e-03  
   90   -1411.7119934582      2.95e-03  
   91   -1411.7131316719      3.17e-03  
   92   -1411.7073248353      1.59e-03  
   93   -1411.7100327807      1.61e-03  
   94   -1411.7051923905      1.12e-03  
   95   -1411.7114543492      1.51e-03  
   96   -1411.7102989332      1.08e-03  
   97   -1411.7112359300      1.19e-03  
   98   -1411.7097670407      8.06e-04  
   99   -1411.7103609102      7.11e-04  
  100   -1411.7098878837      7.36e-04  
  101   -1411.7102893491      7.32e-04  
  102   -1411.7110858542      9.16e-04  
  103   -1411.7109023567      7.76e-04  
  104   -1411.7111697478      8.28e-04  
  105   -1411.7103246934      7.79e-04  
  106   -1411.7117689378      8.91e-04  
  107   -1411.7137374252      1.34e-03  
  108   -1411.7146440970      1.66e-03  
  109   -1411.7118176521      1.12e-03  
  110   -1411.7126997147      1.39e-03  
  111   -1411.7147308182      2.20e-03  
  112   -1411.7149561347      2.76e-03  
  113   -1411.7142784881      2.20e-03  
  114   -1411.7153607115      3.11e-03  
  115   -1411.7145221299      1.73e-03  
  116   -1411.7111150153      1.04e-03  
  117   -1411.7117620216      1.18e-03  
  118   -1411.7084797247      9.88e-04  
  119   -1411.7117568135      1.29e-03  
  120   -1411.7112925871      1.22e-03  
  121   -1411.7095598658      1.02e-03  
  122   -1411.7118771612      1.36e-03  
  123   -1411.7122920598      1.62e-03  
  124   -1411.7111397203      1.16e-03  
  125   -1411.7102000695      1.00e-03  
  126   -1411.7127020976      1.33e-03  
  127   -1411.7125906711      1.33e-03  
  128   -1411.7113482325      1.21e-03  
  129   -1411.7124003458      1.44e-03  
  130   -1411.7137213553      2.50e-03  
  131   -1411.7136169534      3.23e-03  
  132   -1411.7141701099      3.16e-03  
  133   -1411.7141952860      2.58e-03  
  134   -1411.7119572675      7.25e-04  
  135   -1411.7141110220      1.39e-03  
  136   -1411.7142560266      1.95e-03  
  137   -1411.7121558447      1.05e-03  
  138   -1411.7126420462      1.22e-03  
  139   -1411.7102661394      8.91e-04  
  140   -1411.7112979198      5.80e-04  
  141   -1411.7076449818      8.46e-04  
  142   -1411.7138747832      1.61e-03  
  143   -1411.7128355197      1.31e-03  
  144   -1411.7105077367      8.66e-04  
  145   -1411.7102209624      1.12e-03  
  146   -1411.7127702972      1.52e-03  
  147   -1411.7115065239      1.23e-03  
  148   -1411.7124675123      1.56e-03  
  149   -1411.7120770570      1.38e-03  
  150   -1411.7115761682      1.26e-03  
  151   -1411.7143445047      3.04e-03  
  152   -1411.7121253457      1.02e-03  
  153   -1411.7112220374      6.49e-04  
  154   -1411.7128574637      8.68e-04  
  155   -1411.7079340049      1.06e-03  
  156   -1411.7093706724      1.21e-03  
  157   -1411.7077167235      1.22e-03  
  158   -1411.7105310668      1.18e-03  
  159   -1411.7090531621      1.13e-03  
  160   -1411.7112636780      1.33e-03  
  161   -1411.7120882542      1.60e-03  
  162   -1411.7117149432      1.51e-03  
  163   -1411.7104097670      1.25e-03  
  164   -1411.7107742135      1.28e-03  
  165   -1411.7103485148      1.08e-03  
  166   -1411.7100143330      1.06e-03  
  167   -1411.7106365947      1.27e-03  
  168   -1411.7099057704      1.24e-03  
  169   -1411.7129584969      1.44e-03  
  170   -1411.7129467686      1.48e-03  
  171   -1411.7115980351      1.14e-03  
  172   -1411.7121894036      1.30e-03  
  173   -1411.7115272947      1.37e-03  
  174   -1411.7130498384      1.31e-03  
  175   -1411.7121493689      1.24e-03  
  176   -1411.7118412189      2.24e-03  
  177   -1411.7112314517      2.29e-03  
  178   -1411.7113232406      2.25e-03  
  179   -1411.7111163218      2.60e-03  
  180   -1411.7120093683      2.59e-03  
  181   -1411.7117559875      2.39e-03  
  182   -1411.7103090968      1.80e-03  
  183   -1411.7071911692      1.38e-03  
  184   -1411.7097856531      1.47e-03  
  185   -1411.7100622336      1.42e-03  
  186   -1411.7098064290      1.36e-03  
  187   -1411.7105987990      1.35e-03  
  188   -1411.7112107312      1.37e-03  
  189   -1411.7106267822      1.09e-03  
  190   -1411.7149288532      8.00e-04  
  191   -1411.7167460825      9.67e-04  
  192   -1411.7155912297      8.58e-04  
  193   -1411.7148615098      8.71e-04  
  194   -1411.7147335448      8.59e-04  
  195   -1411.7122004668      7.60e-04  
  196   -1411.7108623884      7.81e-04  
  197   -1411.7122985037      9.87e-04  
  198   -1411.7103709519      8.07e-04  
  199   -1411.7101765575      9.72e-04  
  200   -1411.7094749777      1.01e-03  
  201   -1411.7084970565      1.07e-03  
  202   -1411.7091429193      9.79e-04  
  203   -1411.7078480478      1.11e-03  
  204   -1411.7077581018      1.10e-03  
  205   -1411.7069460088      1.17e-03  
  206   -1411.7067541257      1.15e-03  
  207   -1411.7075731955      1.14e-03  
  208   -1411.7107198574      8.49e-04  
  209   -1411.7110119010      8.08e-04  
  210   -1411.7098699636      6.22e-04  
  211   -1411.7112593075      6.33e-04  
  212   -1411.7056008982      1.30e-03  
  213   -1411.7104367556      1.26e-03  
  214   -1411.7097781159      1.17e-03  
  215   -1411.7078666652      1.29e-03  
  216   -1411.7075222090      1.33e-03  
  217   -1411.7075787349      1.39e-03  
  218   -1411.7075562123      1.41e-03  
  219   -1411.7077158245      1.40e-03  
  220   -1411.7077702164      1.38e-03  
  221   -1411.7079178396      1.47e-03  
  222   -1411.7086062499      1.46e-03  
  223   -1411.7092115499      1.39e-03  
  224   -1411.7103657758      1.36e-03  
  225   -1411.7106525410      1.49e-03  
  226   -1411.7121734613      1.95e-03  
  227   -1411.7101215373      2.10e-03  
  228   -1411.7105198174      1.72e-03  
  229   -1411.7108530139      2.02e-03  
  230   -1411.7106639290      1.76e-03  
  231   -1411.7115288468      2.49e-03  
  232   -1411.7130512715      2.16e-03  
  233   -1411.7117370217      2.02e-03  
  234   -1411.7111629769      2.05e-03  
  235   -1411.7122630463      2.15e-03  
  236   -1411.7106872649      1.73e-03  
  237   -1411.7112149310      1.79e-03  
  238   -1411.7065557977      1.28e-03  
  239   -1411.7130218424      1.36e-03  
  240   -1411.7154945224      2.14e-03  
  241   -1411.7151354391      2.29e-03  
  242   -1411.7130652805      2.30e-03  
  243   -1411.7139966102      2.72e-03  
  244   -1411.7140833853      1.81e-03  
  245   -1411.7137873472      1.55e-03  
  246   -1411.7135228518      1.20e-03  
  247   -1411.7139902398      1.25e-03  
  248   -1411.7132413654      1.23e-03  
  249   -1411.7127361659      1.14e-03  
  250   -1411.7128108020      1.23e-03  
  251   -1411.7146177235      2.13e-03  
  252   -1411.7145338860      2.15e-03  
  253   -1411.7133022175      1.73e-03  
  254   -1411.7039402867      1.36e-03  
  255   -1411.7130267029      2.00e-03  
  256   -1411.7130639449      1.83e-03  
  257   -1411.7128266773      1.67e-03  
  258   -1411.7119043104      1.33e-03  
  259   -1411.7123563304      1.43e-03  
  260   -1411.7124086842      1.43e-03  
  261   -1411.7119387055      1.41e-03  
  262   -1411.7128820581      1.72e-03  
  263   -1411.7121761823      1.50e-03  
  264   -1411.7129440783      1.63e-03  
  265   -1411.7128552717      1.56e-03  
  266   -1411.7127312393      1.50e-03  
  267   -1411.7132867123      1.64e-03  
  268   -1411.7125586214      1.36e-03  
  269   -1411.7131073803      1.41e-03  
  270   -1411.7068252020      8.29e-04  
  271   -1411.7143434701      3.55e-03  
  272   -1411.7146383161      2.17e-03  
  273   -1411.7123407057      1.09e-03  
  274   -1411.7123626581      1.17e-03  
  275   -1411.7125942974      1.30e-03  
  276   -1411.7107570647      1.08e-03  
  277   -1411.7104592373      1.17e-03  
  278   -1411.7104534160      1.23e-03  
  279   -1411.7101012546      1.26e-03  
  280   -1411.7107385658      1.36e-03  
  281   -1411.7104349728      1.30e-03  
  282   -1411.7111983584      1.56e-03  
  283   -1411.7114065543      1.84e-03  
  284   -1411.7109943850      1.37e-03  
  285   -1411.7091739412      1.35e-03  
  286   -1411.7074890738      1.36e-03  
  287   -1411.7095011976      1.71e-03  
  288   -1411.7086802744      1.52e-03  
  289   -1411.7097028012      1.87e-03  
  290   -1411.7102611996      1.97e-03  
  291   -1411.7145370825      2.08e-03  
  292   -1411.7133104035      1.62e-03  
  293   -1411.7140979182      1.87e-03  
  294   -1411.7143280350      2.20e-03  
  295   -1411.7145173223      2.14e-03  
  296   -1411.7150382448      2.51e-03  
  297   -1411.7156048418      2.77e-03  
  298   -1411.7157145843      1.48e-03  
  299   -1411.7161448792      1.54e-03  
  300   -1411.7143508921      1.32e-03  
  301   -1411.7147499992      1.29e-03  
  302   -1411.7141554060      1.02e-03  
  303   -1411.7140104389      1.06e-03  
  304   -1411.7084383209      8.73e-04  
  305   -1411.7094288172      7.79e-04  
  306   -1411.7074413934      6.84e-04  
  307   -1411.7071667880      7.26e-04  
  308   -1411.7129336070      1.53e-03  
  309   -1411.7130079884      1.61e-03  
  310   -1411.7131370634      1.73e-03  
  311   -1411.7133577124      1.44e-03  
  312   -1411.7118015248      1.34e-03  
  313   -1411.7108466626      1.31e-03  
  314   -1411.7106335332      1.44e-03  
  315   -1411.7108372482      1.49e-03  
  316   -1411.7107050351      1.44e-03  
  317   -1411.7105039882      1.46e-03  
  318   -1411.7108733515      1.41e-03  
  319   -1411.7106900977      1.46e-03  
  320   -1411.7102198242      1.50e-03  
  321   -1411.7099936672      1.86e-03  
  322   -1411.7066203294      2.39e-03  
  323   -1411.7044605248      2.83e-03  
  324   -1411.7054341660      2.63e-03  
  325   -1411.7054964407      2.70e-03  
  326   -1411.7043067350      2.83e-03  
  327   -1411.7103679221      7.21e-04  
  328   -1411.7105419858      4.50e-04  
  329   -1411.7106105103      4.43e-04  
  330   -1411.7091665800      4.05e-04  
  331   -1411.7076838464      4.93e-04  
  332   -1411.7138404832      9.68e-04  
  333   -1411.7092498184      7.80e-04  
  334   -1411.7093055934      7.95e-04  
  335   -1411.7127130571      1.39e-03  
  336   -1411.7146489287      1.54e-03  
  337   -1411.7144584459      1.46e-03  
  338   -1411.7140604489      1.38e-03  
  339   -1411.7140418269      1.40e-03  
  340   -1411.7161420641      1.57e-03  
  341   -1411.7171308337      1.86e-03  
  342   -1411.7096806906      5.12e-04  
  343   -1411.7097234257      7.39e-04  
  344   -1411.7094493657      7.43e-04  
  345   -1411.7052455406      1.20e-03  
  346   -1411.7108667356      1.07e-03  
  347   -1411.7050346634      1.24e-03  
  348   -1411.6996743652      1.70e-03  
  349   -1411.7020328473      1.65e-03  
  350   -1411.6999146116      1.86e-03  
  351   -1411.7038847431      1.61e-03  
  352   -1411.7066626818      1.37e-03  
  353   -1411.7070626546      1.36e-03  
  354   -1411.7065475927      1.40e-03  
  355   -1411.7065485257      1.43e-03  
  356   -1411.7080552305      1.39e-03  
  357   -1411.7098927405      1.33e-03  
  358   -1411.7102105077      1.29e-03  
  359   -1411.7090248428      1.27e-03  
  360   -1411.7086869592      1.30e-03  
  361   -1411.7083133854      1.32e-03  
  362   -1411.7080776445      1.32e-03  
  363   -1411.7067640957      1.52e-03  
  364   -1411.7091748043      1.29e-03  
  365   -1411.7094393759      1.25e-03  
  366   -1411.7093878114      1.26e-03  
  367   -1411.7092282340      1.26e-03  
  368   -1411.7115672372      1.22e-03  
  369   -1411.7099088488      1.21e-03  
  370   -1411.7110373475      1.24e-03  
  371   -1411.7073395767      1.63e-03  
  372   -1411.7078621667      1.62e-03  
  373   -1411.7070685951      1.79e-03  
  374   -1411.7069601313      1.78e-03  
  375   -1411.7069682616      1.55e-03  
  376   -1411.7074605028      1.59e-03  
  377   -1411.7096274348      1.27e-03  
  378   -1411.7086057744      1.37e-03  
  379   -1411.7098410729      1.07e-03  
  380   -1411.7096034715      8.19e-04  
  381   -1411.7113544290      6.41e-04  
  382   -1411.7109312959      7.57e-04  
  383   -1411.7099340945      6.47e-04  
  384   -1411.7103546736      6.82e-04  
  385   -1411.7102305602      6.62e-04  
  386   -1411.7070954401      1.27e-03  
  387   -1411.7061010174      1.37e-03  
  388   -1411.7067574493      1.25e-03  
  389   -1411.7061178472      1.32e-03  
  390   -1411.7057106931      1.33e-03  
  391   -1411.7062095064      1.30e-03  
  392   -1411.7066832230      1.19e-03  
  393   -1411.7057291276      1.26e-03  
  394   -1411.7051025519      1.39e-03  
  395   -1411.7063167733      1.32e-03  
  396   -1411.7049177738      1.38e-03  
  397   -1411.7071609327      1.05e-03  
  398   -1411.7117460118      9.36e-04  
  399   -1411.7052410544      1.32e-03  
  400   -1411.7068339063      1.20e-03  
  401   -1411.7064132828      1.24e-03  
  402   -1411.7058906116      1.28e-03  
  403   -1411.7057113659      1.30e-03  
  404   -1411.7058865689      1.28e-03  
  405   -1411.7066384321      1.17e-03  
  406   -1411.7062606527      1.24e-03  
  407   -1411.7061856538      1.25e-03  
  408   -1411.7061629339      1.26e-03  
  409   -1411.7069760475      1.17e-03  
  410   -1411.7064827660      1.20e-03  
  411   -1411.7078889577      1.04e-03  
  412   -1411.7100040627      1.01e-03  
  413   -1411.7073406454      9.76e-04  
  414   -1411.7070291407      1.05e-03  
  415   -1411.7074540834      1.03e-03  
  416   -1411.7074821575      1.04e-03  
  417   -1411.7101601655      9.42e-04  
  418   -1411.7090983214      9.68e-04  
  419   -1411.7085570444      9.39e-04  
  420   -1411.7085340541      9.76e-04  
  421   -1411.7090621344      8.65e-04  
  422   -1411.7105034036      8.42e-04  
  423   -1411.7096996786      7.70e-04  
  424   -1411.7111171813      5.87e-04  
  425   -1411.7173689487      1.73e-03  
  426   -1411.7150723653      1.03e-03  
  427   -1411.7155408656      2.06e-03  
  428   -1411.7140844483      1.71e-03  
  429   -1411.7149971894      2.72e-03  
  430   -1411.7133961828      3.56e-03  
  431   -1411.7134638681      2.68e-03  
  432   -1411.7127977801      3.01e-03  
  433   -1411.7126512703      1.97e-03  
  434   -1411.7121629222      1.25e-03  
  435   -1411.7123558039      1.07e-03  
  436   -1411.7127170716      1.15e-03  
  437   -1411.7097008314      1.56e-03  
  438   -1411.7076545199      1.35e-03  
  439   -1411.7119088081      1.89e-03  
  440   -1411.7120210563      1.90e-03  
  441   -1411.7120837241      2.25e-03  
  442   -1411.7117414975      2.29e-03  
  443   -1411.7117741821      2.57e-03  
  444   -1411.7114539359      1.73e-03  
  445   -1411.7124020779      1.77e-03  
  446   -1411.7127956972      2.07e-03  
  447   -1411.7131616714      2.12e-03  
  448   -1411.7137002663      2.37e-03  
  449   -1411.7134064907      3.15e-03  
  450   -1411.7125074754      2.64e-03  
  451   -1411.7103785934      1.14e-03  
  452   -1411.7099810597      9.85e-04  
  453   -1411.7105329951      9.31e-04  
  454   -1411.7017521287      1.56e-03  
  455   -1411.7101641964      1.24e-03  
  456   -1411.7103810375      1.22e-03  
  457   -1411.7107504436      1.31e-03  
  458   -1411.7094985915      1.18e-03  
  459   -1411.7100294001      1.14e-03  
  460   -1411.7111471588      1.31e-03  
  461   -1411.7107901116      1.27e-03  
  462   -1411.7105290694      1.22e-03  
  463   -1411.7105416496      1.24e-03  
  464   -1411.7126263471      1.51e-03  
  465   -1411.7122735633      1.65e-03  
  466   -1411.7105822661      1.46e-03  
  467   -1411.7108938133      1.48e-03  
  468   -1411.7119339488      1.44e-03  
  469   -1411.7107235143      1.33e-03  
  470   -1411.7123603638      1.42e-03  
  471   -1411.7139295530      1.80e-03  
  472   -1411.7138781781      1.81e-03  
  473   -1411.7138272771      1.94e-03  
  474   -1411.7106142914      2.11e-03  
  475   -1411.7109235999      1.98e-03  
  476   -1411.7113199697      2.00e-03  
  477   -1411.7107941292      1.79e-03  
  478   -1411.7104510177      1.63e-03  
  479   -1411.7115757577      1.72e-03  
  480   -1411.7115930274      1.78e-03  
  481   -1411.7108491277      1.28e-03  
  482   -1411.7121533051      1.64e-03  
  483   -1411.7123552447      1.58e-03  
  484   -1411.7120096337      1.04e-03  
  485   -1411.7112432141      7.07e-04  
  486   -1411.7071932826      1.03e-03  
  487   -1411.7126804133      1.46e-03  
  488   -1411.7105646692      1.33e-03  
  489   -1411.7095582350      1.33e-03  
  490   -1411.7095656448      1.24e-03  
  491   -1411.7098637136      1.36e-03  
  492   -1411.7101771306      1.53e-03  
  493   -1411.7126029411      9.84e-04  
  494   -1411.7130685345      1.07e-03  
  495   -1411.7119909355      1.11e-03  
  496   -1411.7126704086      1.65e-03  
  497   -1411.7119861562      1.47e-03  
  498   -1411.7127244683      1.70e-03  
  499   -1411.7133412972      1.51e-03  
  500   -1411.7146410324      1.85e-03  
gen_scfman_exception: SCF failed to converge

 Q-Chem fatal error occurred in module libgscf/gen_scfman/gen_scfman_main.C, line 142:

 Error in gen_scfman


 Please submit a crash report at q-chem.com/reporter 
 
 
